# vtk DataFile Version 2.0
sampleSurface
ASCII
DATASET POLYDATA
POINTS 349 double
0 0 0
-0.5 -5.55112e-17 0.5
0.5 0 0.5
-1 0 0
0 0 1
1 0 0
-1 0 1
1 0 1
-0.5 0 1.5
-1.5 0 0.5
1.5 0 0.5
0.5 0 1.5
-2 0 0
2 0 0
0 0 2
1.5 0 1.5
-1.5 0 1.5
2 0 1
-2 0 1
-1 0 2
1 0 2
-0.5 0 2.5
-2.5 0 0.5
2.5 5.55112e-17 0.5
0.5 5.55112e-17 2.5
2 0 2
-2 0 2
2.5 0 1.5
1.5 2.77556e-17 2.5
-2.5 0 1.5
-1.5 0 2.5
-3 0 0
3 0 0
0 0 3
-3 0 1
3 0 1
-1 0 3
1 0 3
-3.5 0 0.5
3.5 0 0.5
-2.5 0 2.5
2.5 0 2.5
-0.5 0 3.5
0.5 0 3.5
-3 0 2
3 0 2
-2 0 3
2 0 3
3.5 0 1.5
-3.5 0 1.5
-1.5 0 3.5
1.5 0 3.5
-4 0 0
4 0 0
0 0 4
-4 0 1
4 0 1
-1 0 4
1 0 4
-3 0 3
3 0 3
-3.5 0 2.5
3.5 0 2.5
-2.5 0 3.5
2.5 0 3.5
-4 0 2
4 0 2
-2 0 4
2 0 4
-4.5 0 0.5
4.5 0 0.5
-0.5 0 4.5
0.5 0 4.5
-4.5 5.55112e-17 1.5
4.5 0 1.5
-1.5 0 4.5
1.5 0 4.5
-3.5 0 3.5
3.5 0 3.5
-5 0 0
5 0 0
-4 0 3
4 0 3
-3 0 4
3 0 4
0 0 5
-5 0 1
5 0 1
-1 0 5
1 0 5
-4.5 -5.55112e-17 2.5
4.5 0 2.5
-2.5 0 4.5
2.5 0 4.5
-5 0 2
5 0 2
-2 0 5
2 0 5
5.5 0 0.5
-0.5 0 5.5
0.5 0 5.5
-4 0 4
4 0 4
5.5 0 1.5
-4.5 0 3.5
4.5 0 3.5
-3.5 0 4.5
3.5 0 4.5
-1.5 0 5.5
1.5 0 5.5
-5 0 3
5 0 3
-3 0 5
3 0 5
6 0 0
0 0 6
5.5 0 2.5
-2.5 0 5.5
2.5 0 5.5
6 0 1
-1 0 6
1 0 6
6 0 2
-2 0 6
2 0 6
-4.5 0 4.5
4.5 0 4.5
-5 0 4
5 0 4
-4 0 5
4 0 5
6.5 0 0.5
5.5 0 3.5
-3.5 0 5.5
3.5 0 5.5
-0.5 0 6.5
0.5 5.55112e-17 6.5
6.5 0 1.5
-1.5 0 6.5
1.5 0 6.5
6 0 3
-3 0 6
3 0 6
2.5 0 6.5
6.5 0 2.5
-2.5 0 6.5
7 0 0
0 0 7
7 0 1
-5 0 5
5 0 5
-1 0 7
1 0 7
5.5 0 4.5
-4.5 0 5.5
4.5 0 5.5
6 0 4
-4 0 6
4 0 6
7 0 2
-2 0 7
2 0 7
6.5 0 3.5
-3.5 0 6.5
3.5 0 6.5
7.5 0 0.5
-0.5 0 7.5
0.5 0 7.5
7 0 3
-3 0 7
3 0 7
7.5 0 1.5
-1.5 0 7.5
1.5 0 7.5
5.5 0 5.5
6 0 5
-5 0 6
5 0 6
7.5 0 2.5
6.5 0 4.5
-4.5 0 6.5
4.5 0 6.5
-2.5 0 7.5
2.5 0 7.5
8 0 0
0 0 8
8 0 1
7 0 4
-4 0 7
4 0 7
-1 0 8
1 0 8
8 0 2
-2 0 8
2 0 8
7.5 0 3.5
-3.5 0 7.5
3.5 0 7.5
6 0 6
8.5 0 0.5
6.5 0 5.5
5.5 0 6.5
8 0 3
-3 0 8
3 0 8
7 0 5
-5 0 7
5 0 7
8.5 0 1.5
7.5 0 4.5
-4.5 0 7.5
4.5 0 7.5
8.5 0 2.5
8 0 4
-4 0 8
4 0 8
9 0 0
9 0 1
8.5 0 3.5
6.5 0 6.5
9 0 2
7 0 6
6 0 7
7.5 0 5.5
5.5 0 7.5
8 0 5
-5 0 8
5 0 8
9 0 3
9.5 0 0.5
9.5 0 1.5
8.5 0 4.5
9.5 0 2.5
9 0 4
7 0 7
7.5 0 6.5
6.5 0 7.5
10 0 0
8 0 6
6 0 8
10 0 1
9.5 0 3.5
8.5 0 5.5
10 0 2
9 0 5
10 0 3
10.5 0 0.5
9.5 0 4.5
10.5 0 1.5
7.5 0 7.5
8 0 7
7 0 8
8.5 0 6.5
10 0 4
10.5 0 2.5
9 0 6
9.5 0 5.5
11 0 0
11 0 1
10.5 0 3.5
11 0 2
10 0 5
8 0 8
8.5 0 7.5
11 0 3
9 0 7
10.5 0 4.5
11.5 0 0.5
9.5 0 6.5
11.5 0 1.5
10 0 6
11 0 4
11.5 0 2.5
10.5 0 5.5
12 0 0
11.5 0 3.5
12 0 1
9 0 8
11 0 5
9.5 0 7.5
12 0 2
10 0 7
11.5 0 4.5
10.5 0 6.5
12 0 3
12.5 0 0.5
11 0 6
12.5 0 1.5
12 0 4
12.5 0 2.5
11.5 0 5.5
10 0 8
10.5 0 7.5
12.5 0 3.5
13 0 0
12 0 5
13 0 1
11 0 7
13 0 2
11.5 5.55112e-17 6.5
12.5 0 4.5
13 0 3
12 0 6
13.5 0 0.5
13.5 0 1.5
13 0 4
11 0 8
12.5 0 5.5
13.5 0 2.5
11.5 0 7.5
12 0 7
13 0 5
13.5 0 3.5
14 0 0
14 0 1
12.5 0 6.5
14 0 2
13.5 0 4.5
14 0 3
13 0 6
12 0 8
14.5 0 0.5
14 0 4
14.5 0 1.5
13.5 0 5.5
12.5 0 7.5
14.5 0 2.5
13 0 7
14 0 5
14.5 0 3.5
13.5 0 6.5
15 0 0
15 0 1
15 0 2
14.5 0 4.5
14 0 6
13 0 8
15 0 3
13.5 5.55112e-17 7.5
14.5 0 5.5
15 0 4
14 0 7
15 0 5
14.5 -5.55112e-17 6.5
14 0 8
15 0 6
14.5 5.55112e-17 7.5
15 0 7
15 0 8

POLYGONS 640 2560
3 79 86 69
3 86 55 69
3 55 52 69
3 52 79 69
3 52 55 38
3 55 34 38
3 34 31 38
3 31 52 38
3 31 34 22
3 34 18 22
3 18 12 22
3 12 31 22
3 12 18 9
3 18 6 9
3 6 3 9
3 3 12 9
3 3 6 1
3 6 4 1
3 4 0 1
3 0 3 1
3 0 4 2
3 4 7 2
3 7 5 2
3 5 0 2
3 5 7 10
3 7 17 10
3 17 13 10
3 13 5 10
3 13 17 23
3 17 35 23
3 35 32 23
3 32 13 23
3 32 35 39
3 35 56 39
3 56 53 39
3 53 32 39
3 53 56 70
3 56 87 70
3 87 80 70
3 80 53 70
3 80 87 98
3 87 119 98
3 119 114 98
3 114 80 98
3 114 119 131
3 119 148 131
3 148 146 131
3 146 114 131
3 146 148 165
3 148 186 165
3 186 184 165
3 184 146 165
3 184 186 199
3 186 217 199
3 217 216 199
3 216 184 199
3 216 217 229
3 217 240 229
3 240 237 229
3 237 216 229
3 237 240 246
3 240 258 246
3 258 257 246
3 257 237 246
3 257 258 267
3 258 276 267
3 276 274 267
3 274 257 267
3 274 276 285
3 276 296 285
3 296 294 285
3 294 274 285
3 294 296 303
3 296 314 303
3 314 313 303
3 313 294 303
3 313 314 321
3 314 332 321
3 332 331 321
3 331 313 321
3 86 94 73
3 94 65 73
3 65 55 73
3 55 86 73
3 55 65 49
3 65 44 49
3 44 34 49
3 34 55 49
3 34 44 29
3 44 26 29
3 26 18 29
3 18 34 29
3 18 26 16
3 26 19 16
3 19 6 16
3 6 18 16
3 6 19 8
3 19 14 8
3 14 4 8
3 4 6 8
3 4 14 11
3 14 20 11
3 20 7 11
3 7 4 11
3 7 20 15
3 20 25 15
3 25 17 15
3 17 7 15
3 17 25 27
3 25 45 27
3 45 35 27
3 35 17 27
3 35 45 48
3 45 66 48
3 66 56 48
3 56 35 48
3 56 66 74
3 66 95 74
3 95 87 74
3 87 56 74
3 87 95 103
3 95 122 103
3 122 119 103
3 119 87 103
3 119 122 137
3 122 159 137
3 159 148 137
3 148 119 137
3 148 159 171
3 159 192 171
3 192 186 171
3 186 148 171
3 186 192 208
3 192 220 208
3 220 217 208
3 217 186 208
3 217 220 230
3 220 243 230
3 243 240 230
3 240 217 230
3 240 243 248
3 243 260 248
3 260 258 248
3 258 240 248
3 258 260 269
3 260 280 269
3 280 276 269
3 276 258 269
3 276 280 287
3 280 298 287
3 298 296 287
3 296 276 287
3 296 298 304
3 298 316 304
3 316 314 304
3 314 296 304
3 314 316 323
3 316 333 323
3 333 332 323
3 332 314 323
3 94 110 90
3 110 81 90
3 81 65 90
3 65 94 90
3 65 81 61
3 81 59 61
3 59 44 61
3 44 65 61
3 44 59 40
3 59 46 40
3 46 26 40
3 26 44 40
3 26 46 30
3 46 36 30
3 36 19 30
3 19 26 30
3 19 36 21
3 36 33 21
3 33 14 21
3 14 19 21
3 14 33 24
3 33 37 24
3 37 20 24
3 20 14 24
3 20 37 28
3 37 47 28
3 47 25 28
3 25 20 28
3 25 47 41
3 47 60 41
3 60 45 41
3 45 25 41
3 45 60 62
3 60 82 62
3 82 66 62
3 66 45 62
3 66 82 91
3 82 111 91
3 111 95 91
3 95 66 91
3 95 111 116
3 111 140 116
3 140 122 116
3 122 95 116
3 122 140 144
3 140 168 144
3 168 159 144
3 159 122 144
3 159 168 178
3 168 202 178
3 202 192 178
3 192 159 178
3 192 202 212
3 202 228 212
3 228 220 212
3 220 192 212
3 220 228 232
3 228 245 232
3 245 243 232
3 243 220 232
3 243 245 254
3 245 264 254
3 264 260 254
3 260 243 254
3 260 264 272
3 264 284 272
3 284 280 272
3 280 260 272
3 280 284 289
3 284 301 289
3 301 298 289
3 298 280 289
3 298 301 308
3 301 318 308
3 318 316 308
3 316 298 308
3 316 318 326
3 318 337 326
3 337 333 326
3 333 316 326
3 110 127 104
3 127 101 104
3 101 81 104
3 81 110 104
3 81 101 77
3 101 83 77
3 83 59 77
3 59 81 77
3 59 83 63
3 83 67 63
3 67 46 63
3 46 59 63
3 46 67 50
3 67 57 50
3 57 36 50
3 36 46 50
3 36 57 42
3 57 54 42
3 54 33 42
3 33 36 42
3 33 54 43
3 54 58 43
3 58 37 43
3 37 33 43
3 37 58 51
3 58 68 51
3 68 47 51
3 47 37 51
3 47 68 64
3 68 84 64
3 84 60 64
3 60 47 64
3 60 84 78
3 84 102 78
3 102 82 78
3 82 60 78
3 82 102 105
3 102 128 105
3 128 111 105
3 111 82 105
3 111 128 132
3 128 156 132
3 156 140 132
3 140 111 132
3 140 156 162
3 156 187 162
3 187 168 162
3 168 140 162
3 168 187 195
3 187 213 195
3 213 202 195
3 202 168 195
3 202 213 218
3 213 233 218
3 233 228 218
3 228 202 218
3 228 233 241
3 233 253 241
3 253 245 241
3 245 228 241
3 245 253 259
3 253 271 259
3 271 264 259
3 264 245 259
3 264 271 275
3 271 288 275
3 288 284 275
3 284 264 275
3 284 288 293
3 288 305 293
3 305 301 293
3 301 284 293
3 301 305 312
3 305 322 312
3 322 318 312
3 318 301 312
3 318 322 329
3 322 340 329
3 340 337 329
3 337 318 329
3 127 149 125
3 149 129 125
3 129 101 125
3 101 127 125
3 101 129 106
3 129 112 106
3 112 83 106
3 83 101 106
3 83 112 92
3 112 96 92
3 96 67 92
3 67 83 92
3 67 96 75
3 96 88 75
3 88 57 75
3 57 67 75
3 57 88 71
3 88 85 71
3 85 54 71
3 54 57 71
3 54 85 72
3 85 89 72
3 89 58 72
3 58 54 72
3 58 89 76
3 89 97 76
3 97 68 76
3 68 58 76
3 68 97 93
3 97 113 93
3 113 84 93
3 84 68 93
3 84 113 107
3 113 130 107
3 130 102 107
3 102 84 107
3 102 130 126
3 130 150 126
3 150 128 126
3 128 102 126
3 128 150 153
3 150 175 153
3 175 156 153
3 156 128 153
3 156 175 179
3 175 205 179
3 205 187 179
3 187 156 179
3 187 205 209
3 205 225 209
3 225 213 209
3 213 187 209
3 213 225 231
3 225 244 231
3 244 233 231
3 233 213 231
3 233 244 247
3 244 261 247
3 261 253 247
3 253 233 247
3 253 261 266
3 261 278 266
3 278 271 266
3 271 253 266
3 271 278 282
3 278 295 282
3 295 288 282
3 288 271 282
3 288 295 300
3 295 311 300
3 311 305 300
3 305 288 300
3 305 311 317
3 311 328 317
3 328 322 317
3 322 305 317
3 322 328 334
3 328 342 334
3 342 340 334
3 340 322 334
3 149 176 154
3 176 157 154
3 157 129 154
3 129 149 154
3 129 157 133
3 157 141 133
3 141 112 133
3 112 129 133
3 112 141 117
3 141 123 117
3 123 96 117
3 96 112 117
3 96 123 108
3 123 120 108
3 120 88 108
3 88 96 108
3 88 120 99
3 120 115 99
3 115 85 99
3 85 88 99
3 85 115 100
3 115 121 100
3 121 89 100
3 89 85 100
3 89 121 109
3 121 124 109
3 124 97 109
3 97 89 109
3 97 124 118
3 124 142 118
3 142 113 118
3 113 97 118
3 113 142 134
3 142 158 134
3 158 130 134
3 130 113 134
3 130 158 155
3 158 177 155
3 177 150 155
3 150 130 155
3 150 177 174
3 177 198 174
3 198 175 174
3 175 150 174
3 175 198 200
3 198 221 200
3 221 205 200
3 205 175 200
3 205 221 223
3 221 238 223
3 238 225 223
3 225 205 223
3 225 238 242
3 238 255 242
3 255 244 242
3 244 225 242
3 244 255 256
3 255 270 256
3 270 261 256
3 261 244 256
3 261 270 273
3 270 286 273
3 286 278 273
3 278 261 273
3 278 286 290
3 286 302 290
3 302 295 290
3 295 278 290
3 295 302 307
3 302 319 307
3 319 311 307
3 311 295 307
3 311 319 324
3 319 335 324
3 335 328 324
3 328 311 324
3 328 335 339
3 335 345 339
3 345 342 339
3 342 328 339
3 176 206 180
3 206 188 180
3 188 157 180
3 157 176 180
3 157 188 163
3 188 169 163
3 169 141 163
3 141 157 163
3 141 169 145
3 169 160 145
3 160 123 145
3 123 141 145
3 123 160 138
3 160 151 138
3 151 120 138
3 120 123 138
3 120 151 135
3 151 147 135
3 147 115 135
3 115 120 135
3 115 147 136
3 147 152 136
3 152 121 136
3 121 115 136
3 121 152 139
3 152 161 139
3 161 124 139
3 124 121 139
3 124 161 143
3 161 170 143
3 170 142 143
3 142 124 143
3 142 170 164
3 170 189 164
3 189 158 164
3 158 142 164
3 158 189 181
3 189 207 181
3 207 177 181
3 177 158 181
3 177 207 201
3 207 222 201
3 222 198 201
3 198 177 201
3 198 222 219
3 222 234 219
3 234 221 219
3 221 198 219
3 221 234 235
3 234 250 235
3 250 238 235
3 238 221 235
3 238 250 252
3 250 265 252
3 265 255 252
3 255 238 252
3 255 265 268
3 265 281 268
3 281 270 268
3 270 255 268
3 270 281 283
3 281 297 283
3 297 286 283
3 286 270 283
3 286 297 299
3 297 310 299
3 310 302 299
3 302 286 299
3 302 310 315
3 310 327 315
3 327 319 315
3 319 302 315
3 319 327 330
3 327 341 330
3 341 335 330
3 335 319 330
3 335 341 343
3 341 347 343
3 347 345 343
3 345 335 343
3 206 226 210
3 226 214 210
3 214 188 210
3 188 206 210
3 188 214 196
3 214 203 196
3 203 169 196
3 169 188 196
3 169 203 182
3 203 193 182
3 193 160 182
3 160 169 182
3 160 193 172
3 193 190 172
3 190 151 172
3 151 160 172
3 151 190 166
3 190 185 166
3 185 147 166
3 147 151 166
3 147 185 167
3 185 191 167
3 191 152 167
3 152 147 167
3 152 191 173
3 191 194 173
3 194 161 173
3 161 152 173
3 161 194 183
3 194 204 183
3 204 170 183
3 170 161 183
3 170 204 197
3 204 215 197
3 215 189 197
3 189 170 197
3 189 215 211
3 215 227 211
3 227 207 211
3 207 189 211
3 207 227 224
3 227 239 224
3 239 222 224
3 222 207 224
3 222 239 236
3 239 251 236
3 251 234 236
3 234 222 236
3 234 251 249
3 251 262 249
3 262 250 249
3 250 234 249
3 250 262 263
3 262 277 263
3 277 265 263
3 265 250 263
3 265 277 279
3 277 291 279
3 291 281 279
3 281 265 279
3 281 291 292
3 291 306 292
3 306 297 292
3 297 281 292
3 297 306 309
3 306 320 309
3 320 310 309
3 310 297 309
3 310 320 325
3 320 336 325
3 336 327 325
3 327 310 325
3 327 336 338
3 336 344 338
3 344 341 338
3 341 327 338
3 341 344 346
3 344 348 346
3 348 347 346
3 347 341 346
POINT_DATA 349
FIELD attributes 1
p 1 349 float
-1.08706e-13 -1.01321e-13 -1.16091e-13 -1.20554e-13 -1.12535e-13 -1.35981e-13 -1.23525e-13 -1.31167e-13 -1.11898e-13 -1.39787e-13
-1.55871e-13 -1.20831e-13 -1.41275e-13 -1.48302e-13 -1.21044e-13 -1.31875e-13 -1.41094e-13 -1.39135e-13 -1.40518e-13 -1.2383e-13
-1.27119e-13 -1.14437e-13 -1.42764e-13 -1.40734e-13 -1.3701e-13 -1.22323e-13 -1.37425e-13 -1.28059e-13 -1.1876e-13 -1.38428e-13
-1.27889e-13 -1.47516e-13 -1.104e-13 -1.26257e-13 -1.46085e-13 -1.07242e-13 -1.24455e-13 -1.22382e-13 -1.52268e-13 -8.0067e-14
-1.4229e-13 -1.10598e-13 -1.24921e-13 -1.28661e-13 -1.44288e-13 -1.01108e-13 -1.3934e-13 -1.049e-13 -8.01089e-14 -1.50881e-13
-1.30575e-13 -1.05096e-13 -1.39735e-13 -6.33439e-14 -1.23378e-13 -1.45042e-13 -6.23208e-14 -1.33055e-13 -1.14686e-13 -1.50714e-13
-9.3221e-14 -1.45552e-13 -8.56651e-14 -1.56604e-13 -8.51455e-14 -1.48012e-13 -6.50828e-14 -1.46696e-13 -1.02694e-13 -1.27202e-13
-4.66207e-14 -1.25249e-13 -1.14682e-13 -1.49819e-13 -4.24864e-14 -1.51476e-13 -1.10306e-13 -1.58411e-13 -9.14751e-14 -1.27202e-13
-5.01264e-14 -1.4814e-13 -7.59795e-14 -1.47932e-13 -9.45997e-14 -1.19145e-13 -1.3851e-13 -4.95248e-14 -1.33245e-13 -1.154e-13
-1.45798e-13 -5.20709e-14 -1.4813e-13 -1.10229e-13 -1.47808e-13 -5.20812e-14 -1.41546e-13 -1.10352e-13 -5.36322e-14 -1.20874e-13
-1.15774e-13 -1.41087e-13 -8.40041e-14 -5.53601e-14 -1.42801e-13 -7.47071e-14 -1.28584e-13 -9.15492e-14 -1.35381e-13 -1.20838e-13
-1.44299e-13 -6.49197e-14 -1.40316e-13 -9.62589e-14 -5.73821e-14 -1.12164e-13 -5.84073e-14 -1.31197e-13 -1.00036e-13 -5.88361e-14
-1.25549e-13 -1.17809e-13 -6.20934e-14 -1.39837e-13 -1.16524e-13 -1.3455e-13 -7.8285e-14 -1.38676e-13 -7.42861e-14 -1.43236e-13
-8.43802e-14 -6.11319e-14 -7.44934e-14 -1.53352e-13 -8.3221e-14 -1.02645e-13 -1.09364e-13 -6.52202e-14 -1.43296e-13 -1.25261e-13
-6.85433e-14 -1.45943e-13 -9.87291e-14 -1.19962e-13 -6.93859e-14 -1.49475e-13 -4.89857e-14 -9.98247e-14 -5.21762e-14 -1.45503e-13
-7.77356e-14 -1.11387e-13 -1.25293e-13 -6.96588e-14 -1.56456e-13 -8.44657e-14 -6.91672e-14 -1.40115e-13 -8.476e-14 -5.7565e-14
-1.43148e-13 -1.33494e-13 -7.18867e-14 -1.4975e-13 -9.16976e-14 -3.68394e-14 -7.10296e-14 -1.1626e-13 -6.31024e-14 -1.48019e-13
-1.10689e-13 -4.55134e-14 -1.28578e-13 -1.50286e-13 -7.8533e-14 -6.59437e-14 -1.2868e-13 -8.00179e-14 -5.01405e-14 -6.063e-14
-1.00904e-13 -7.96556e-14 -1.51243e-13 -1.38466e-13 -3.92962e-14 -9.36448e-14 -4.27791e-14 -6.03026e-14 -1.2677e-13 -8.4187e-14
-9.98037e-14 -1.33273e-13 -4.45022e-14 -1.3991e-13 -1.44376e-13 -6.09965e-14 -1.41608e-13 -9.26303e-14 -6.66925e-14 -4.1753e-14
-5.49531e-14 -7.74171e-14 -4.68788e-14 -1.46426e-13 -1.15548e-13 -4.88589e-14 -1.0786e-13 -7.44945e-14 -4.70105e-14 -4.76973e-14
-1.14817e-13 -7.27644e-14 -3.53446e-14 -4.63469e-14 -1.28213e-13 -8.26974e-14 -5.19181e-14 -4.88699e-14 -4.10338e-14 -5.58666e-14
-3.99736e-14 -4.23223e-14 -6.29804e-14 -3.21552e-14 -6.81408e-14 -3.58514e-14 -1.14817e-13 -7.04526e-14 -3.23211e-14 -6.20831e-14
-4.46331e-14 -3.56599e-14 -3.29064e-14 -2.96208e-14 -4.04114e-14 -2.63144e-14 -5.04969e-14 -5.55869e-14 -2.59654e-14 -5.93188e-14
-4.70881e-14 -1.99997e-14 -2.78934e-14 -3.43322e-14 -2.73523e-14 -2.2075e-14 -4.90907e-14 -2.17898e-14 -3.25455e-14 -2.89679e-14
-2.4623e-14 -3.97324e-14 -1.74986e-14 -1.14854e-14 -2.72438e-14 -2.19207e-14 -2.40662e-14 -3.24214e-14 -2.88951e-14 -8.15002e-15
-2.20979e-14 -1.22478e-14 -2.73394e-14 -2.5711e-14 -1.33337e-14 -1.66782e-14 3.9979e-15 -1.57522e-14 -1.82246e-14 -1.81921e-14
-1.27225e-14 -3.65798e-15 -1.04101e-14 -7.13318e-15 1.66637e-15 -7.53087e-15 -1.67452e-15 -1.54948e-14 -2.18328e-15 -5.27858e-15
-4.0234e-15 -6.97815e-15 -2.94894e-15 -1.4661e-15 -6.66975e-15 1.90849e-14 -8.9415e-16 8.16134e-15 -1.06623e-14 4.34728e-15
-2.64889e-15 -4.11096e-15 -2.94334e-15 -1.30853e-14 1.74586e-14 -9.2962e-15 8.48012e-15 1.64067e-15 5.23421e-16 7.67157e-15
-1.9084e-14 -2.31359e-15 -1.81163e-15 1.58323e-14 -9.15804e-15 -8.59079e-15 1.78601e-16 -1.2503e-14 -1.25689e-15 3.30054e-15
1.20656e-15 -1.00821e-14 7.40532e-16 8.25171e-15 1.06834e-15 2.33794e-16 -3.56864e-15 -2.93441e-15 5.85815e-16 -7.91113e-15
-1.53956e-15 6.71159e-16 9.54135e-16 -3.072e-15 -5.80702e-15 -6.37966e-15 -7.8763e-16 -6.38873e-15 -9.78411e-16 3.64725e-15
-1.35683e-14 3.3558e-16 0 0 2.36316e-15 -6.23249e-15 -6.1102e-15 0 -5.84074e-15 2.46462e-15
0 -9.36243e-15 0 -8.01925e-15 -7.93108e-15 0 -1.00214e-14 0 -5.01071e-15
