# vtk DataFile Version 2.0
sampleSurface
ASCII
DATASET POLYDATA
POINTS 349 double
0 0 0
-0.5 -5.55112e-17 0.5
0.5 0 0.5
-1 0 0
0 0 1
1 0 0
-1 0 1
1 0 1
-0.5 0 1.5
-1.5 0 0.5
1.5 0 0.5
0.5 0 1.5
-2 0 0
2 0 0
0 0 2
1.5 0 1.5
-1.5 0 1.5
2 0 1
-2 0 1
-1 0 2
1 0 2
-0.5 0 2.5
-2.5 0 0.5
2.5 5.55112e-17 0.5
0.5 5.55112e-17 2.5
2 0 2
-2 0 2
2.5 0 1.5
1.5 2.77556e-17 2.5
-2.5 0 1.5
-1.5 0 2.5
-3 0 0
3 0 0
0 0 3
-3 0 1
3 0 1
-1 0 3
1 0 3
-3.5 0 0.5
3.5 0 0.5
-2.5 0 2.5
2.5 0 2.5
-0.5 0 3.5
0.5 0 3.5
-3 0 2
3 0 2
-2 0 3
2 0 3
3.5 0 1.5
-3.5 0 1.5
-1.5 0 3.5
1.5 0 3.5
-4 0 0
4 0 0
0 0 4
-4 0 1
4 0 1
-1 0 4
1 0 4
-3 0 3
3 0 3
-3.5 0 2.5
3.5 0 2.5
-2.5 0 3.5
2.5 0 3.5
-4 0 2
4 0 2
-2 0 4
2 0 4
-4.5 0 0.5
4.5 0 0.5
-0.5 0 4.5
0.5 0 4.5
-4.5 5.55112e-17 1.5
4.5 0 1.5
-1.5 0 4.5
1.5 0 4.5
-3.5 0 3.5
3.5 0 3.5
-5 0 0
5 0 0
-4 0 3
4 0 3
-3 0 4
3 0 4
0 0 5
-5 0 1
5 0 1
-1 0 5
1 0 5
-4.5 -5.55112e-17 2.5
4.5 0 2.5
-2.5 0 4.5
2.5 0 4.5
-5 0 2
5 0 2
-2 0 5
2 0 5
5.5 0 0.5
-0.5 0 5.5
0.5 0 5.5
-4 0 4
4 0 4
5.5 0 1.5
-4.5 0 3.5
4.5 0 3.5
-3.5 0 4.5
3.5 0 4.5
-1.5 0 5.5
1.5 0 5.5
-5 0 3
5 0 3
-3 0 5
3 0 5
6 0 0
0 0 6
5.5 0 2.5
-2.5 0 5.5
2.5 0 5.5
6 0 1
-1 0 6
1 0 6
6 0 2
-2 0 6
2 0 6
-4.5 0 4.5
4.5 0 4.5
-5 0 4
5 0 4
-4 0 5
4 0 5
6.5 0 0.5
5.5 0 3.5
-3.5 0 5.5
3.5 0 5.5
-0.5 0 6.5
0.5 5.55112e-17 6.5
6.5 0 1.5
-1.5 0 6.5
1.5 0 6.5
6 0 3
-3 0 6
3 0 6
2.5 0 6.5
6.5 0 2.5
-2.5 0 6.5
7 0 0
0 0 7
7 0 1
-5 0 5
5 0 5
-1 0 7
1 0 7
5.5 0 4.5
-4.5 0 5.5
4.5 0 5.5
6 0 4
-4 0 6
4 0 6
7 0 2
-2 0 7
2 0 7
6.5 0 3.5
-3.5 0 6.5
3.5 0 6.5
7.5 0 0.5
-0.5 0 7.5
0.5 0 7.5
7 0 3
-3 0 7
3 0 7
7.5 0 1.5
-1.5 0 7.5
1.5 0 7.5
5.5 0 5.5
6 0 5
-5 0 6
5 0 6
7.5 0 2.5
6.5 0 4.5
-4.5 0 6.5
4.5 0 6.5
-2.5 0 7.5
2.5 0 7.5
8 0 0
0 0 8
8 0 1
7 0 4
-4 0 7
4 0 7
-1 0 8
1 0 8
8 0 2
-2 0 8
2 0 8
7.5 0 3.5
-3.5 0 7.5
3.5 0 7.5
6 0 6
8.5 0 0.5
6.5 0 5.5
5.5 0 6.5
8 0 3
-3 0 8
3 0 8
7 0 5
-5 0 7
5 0 7
8.5 0 1.5
7.5 0 4.5
-4.5 0 7.5
4.5 0 7.5
8.5 0 2.5
8 0 4
-4 0 8
4 0 8
9 0 0
9 0 1
8.5 0 3.5
6.5 0 6.5
9 0 2
7 0 6
6 0 7
7.5 0 5.5
5.5 0 7.5
8 0 5
-5 0 8
5 0 8
9 0 3
9.5 0 0.5
9.5 0 1.5
8.5 0 4.5
9.5 0 2.5
9 0 4
7 0 7
7.5 0 6.5
6.5 0 7.5
10 0 0
8 0 6
6 0 8
10 0 1
9.5 0 3.5
8.5 0 5.5
10 0 2
9 0 5
10 0 3
10.5 0 0.5
9.5 0 4.5
10.5 0 1.5
7.5 0 7.5
8 0 7
7 0 8
8.5 0 6.5
10 0 4
10.5 0 2.5
9 0 6
9.5 0 5.5
11 0 0
11 0 1
10.5 0 3.5
11 0 2
10 0 5
8 0 8
8.5 0 7.5
11 0 3
9 0 7
10.5 0 4.5
11.5 0 0.5
9.5 0 6.5
11.5 0 1.5
10 0 6
11 0 4
11.5 0 2.5
10.5 0 5.5
12 0 0
11.5 0 3.5
12 0 1
9 0 8
11 0 5
9.5 0 7.5
12 0 2
10 0 7
11.5 0 4.5
10.5 0 6.5
12 0 3
12.5 0 0.5
11 0 6
12.5 0 1.5
12 0 4
12.5 0 2.5
11.5 0 5.5
10 0 8
10.5 0 7.5
12.5 0 3.5
13 0 0
12 0 5
13 0 1
11 0 7
13 0 2
11.5 5.55112e-17 6.5
12.5 0 4.5
13 0 3
12 0 6
13.5 0 0.5
13.5 0 1.5
13 0 4
11 0 8
12.5 0 5.5
13.5 0 2.5
11.5 0 7.5
12 0 7
13 0 5
13.5 0 3.5
14 0 0
14 0 1
12.5 0 6.5
14 0 2
13.5 0 4.5
14 0 3
13 0 6
12 0 8
14.5 0 0.5
14 0 4
14.5 0 1.5
13.5 0 5.5
12.5 0 7.5
14.5 0 2.5
13 0 7
14 0 5
14.5 0 3.5
13.5 0 6.5
15 0 0
15 0 1
15 0 2
14.5 0 4.5
14 0 6
13 0 8
15 0 3
13.5 5.55112e-17 7.5
14.5 0 5.5
15 0 4
14 0 7
15 0 5
14.5 -5.55112e-17 6.5
14 0 8
15 0 6
14.5 5.55112e-17 7.5
15 0 7
15 0 8

POLYGONS 640 2560
3 79 86 69
3 86 55 69
3 55 52 69
3 52 79 69
3 52 55 38
3 55 34 38
3 34 31 38
3 31 52 38
3 31 34 22
3 34 18 22
3 18 12 22
3 12 31 22
3 12 18 9
3 18 6 9
3 6 3 9
3 3 12 9
3 3 6 1
3 6 4 1
3 4 0 1
3 0 3 1
3 0 4 2
3 4 7 2
3 7 5 2
3 5 0 2
3 5 7 10
3 7 17 10
3 17 13 10
3 13 5 10
3 13 17 23
3 17 35 23
3 35 32 23
3 32 13 23
3 32 35 39
3 35 56 39
3 56 53 39
3 53 32 39
3 53 56 70
3 56 87 70
3 87 80 70
3 80 53 70
3 80 87 98
3 87 119 98
3 119 114 98
3 114 80 98
3 114 119 131
3 119 148 131
3 148 146 131
3 146 114 131
3 146 148 165
3 148 186 165
3 186 184 165
3 184 146 165
3 184 186 199
3 186 217 199
3 217 216 199
3 216 184 199
3 216 217 229
3 217 240 229
3 240 237 229
3 237 216 229
3 237 240 246
3 240 258 246
3 258 257 246
3 257 237 246
3 257 258 267
3 258 276 267
3 276 274 267
3 274 257 267
3 274 276 285
3 276 296 285
3 296 294 285
3 294 274 285
3 294 296 303
3 296 314 303
3 314 313 303
3 313 294 303
3 313 314 321
3 314 332 321
3 332 331 321
3 331 313 321
3 86 94 73
3 94 65 73
3 65 55 73
3 55 86 73
3 55 65 49
3 65 44 49
3 44 34 49
3 34 55 49
3 34 44 29
3 44 26 29
3 26 18 29
3 18 34 29
3 18 26 16
3 26 19 16
3 19 6 16
3 6 18 16
3 6 19 8
3 19 14 8
3 14 4 8
3 4 6 8
3 4 14 11
3 14 20 11
3 20 7 11
3 7 4 11
3 7 20 15
3 20 25 15
3 25 17 15
3 17 7 15
3 17 25 27
3 25 45 27
3 45 35 27
3 35 17 27
3 35 45 48
3 45 66 48
3 66 56 48
3 56 35 48
3 56 66 74
3 66 95 74
3 95 87 74
3 87 56 74
3 87 95 103
3 95 122 103
3 122 119 103
3 119 87 103
3 119 122 137
3 122 159 137
3 159 148 137
3 148 119 137
3 148 159 171
3 159 192 171
3 192 186 171
3 186 148 171
3 186 192 208
3 192 220 208
3 220 217 208
3 217 186 208
3 217 220 230
3 220 243 230
3 243 240 230
3 240 217 230
3 240 243 248
3 243 260 248
3 260 258 248
3 258 240 248
3 258 260 269
3 260 280 269
3 280 276 269
3 276 258 269
3 276 280 287
3 280 298 287
3 298 296 287
3 296 276 287
3 296 298 304
3 298 316 304
3 316 314 304
3 314 296 304
3 314 316 323
3 316 333 323
3 333 332 323
3 332 314 323
3 94 110 90
3 110 81 90
3 81 65 90
3 65 94 90
3 65 81 61
3 81 59 61
3 59 44 61
3 44 65 61
3 44 59 40
3 59 46 40
3 46 26 40
3 26 44 40
3 26 46 30
3 46 36 30
3 36 19 30
3 19 26 30
3 19 36 21
3 36 33 21
3 33 14 21
3 14 19 21
3 14 33 24
3 33 37 24
3 37 20 24
3 20 14 24
3 20 37 28
3 37 47 28
3 47 25 28
3 25 20 28
3 25 47 41
3 47 60 41
3 60 45 41
3 45 25 41
3 45 60 62
3 60 82 62
3 82 66 62
3 66 45 62
3 66 82 91
3 82 111 91
3 111 95 91
3 95 66 91
3 95 111 116
3 111 140 116
3 140 122 116
3 122 95 116
3 122 140 144
3 140 168 144
3 168 159 144
3 159 122 144
3 159 168 178
3 168 202 178
3 202 192 178
3 192 159 178
3 192 202 212
3 202 228 212
3 228 220 212
3 220 192 212
3 220 228 232
3 228 245 232
3 245 243 232
3 243 220 232
3 243 245 254
3 245 264 254
3 264 260 254
3 260 243 254
3 260 264 272
3 264 284 272
3 284 280 272
3 280 260 272
3 280 284 289
3 284 301 289
3 301 298 289
3 298 280 289
3 298 301 308
3 301 318 308
3 318 316 308
3 316 298 308
3 316 318 326
3 318 337 326
3 337 333 326
3 333 316 326
3 110 127 104
3 127 101 104
3 101 81 104
3 81 110 104
3 81 101 77
3 101 83 77
3 83 59 77
3 59 81 77
3 59 83 63
3 83 67 63
3 67 46 63
3 46 59 63
3 46 67 50
3 67 57 50
3 57 36 50
3 36 46 50
3 36 57 42
3 57 54 42
3 54 33 42
3 33 36 42
3 33 54 43
3 54 58 43
3 58 37 43
3 37 33 43
3 37 58 51
3 58 68 51
3 68 47 51
3 47 37 51
3 47 68 64
3 68 84 64
3 84 60 64
3 60 47 64
3 60 84 78
3 84 102 78
3 102 82 78
3 82 60 78
3 82 102 105
3 102 128 105
3 128 111 105
3 111 82 105
3 111 128 132
3 128 156 132
3 156 140 132
3 140 111 132
3 140 156 162
3 156 187 162
3 187 168 162
3 168 140 162
3 168 187 195
3 187 213 195
3 213 202 195
3 202 168 195
3 202 213 218
3 213 233 218
3 233 228 218
3 228 202 218
3 228 233 241
3 233 253 241
3 253 245 241
3 245 228 241
3 245 253 259
3 253 271 259
3 271 264 259
3 264 245 259
3 264 271 275
3 271 288 275
3 288 284 275
3 284 264 275
3 284 288 293
3 288 305 293
3 305 301 293
3 301 284 293
3 301 305 312
3 305 322 312
3 322 318 312
3 318 301 312
3 318 322 329
3 322 340 329
3 340 337 329
3 337 318 329
3 127 149 125
3 149 129 125
3 129 101 125
3 101 127 125
3 101 129 106
3 129 112 106
3 112 83 106
3 83 101 106
3 83 112 92
3 112 96 92
3 96 67 92
3 67 83 92
3 67 96 75
3 96 88 75
3 88 57 75
3 57 67 75
3 57 88 71
3 88 85 71
3 85 54 71
3 54 57 71
3 54 85 72
3 85 89 72
3 89 58 72
3 58 54 72
3 58 89 76
3 89 97 76
3 97 68 76
3 68 58 76
3 68 97 93
3 97 113 93
3 113 84 93
3 84 68 93
3 84 113 107
3 113 130 107
3 130 102 107
3 102 84 107
3 102 130 126
3 130 150 126
3 150 128 126
3 128 102 126
3 128 150 153
3 150 175 153
3 175 156 153
3 156 128 153
3 156 175 179
3 175 205 179
3 205 187 179
3 187 156 179
3 187 205 209
3 205 225 209
3 225 213 209
3 213 187 209
3 213 225 231
3 225 244 231
3 244 233 231
3 233 213 231
3 233 244 247
3 244 261 247
3 261 253 247
3 253 233 247
3 253 261 266
3 261 278 266
3 278 271 266
3 271 253 266
3 271 278 282
3 278 295 282
3 295 288 282
3 288 271 282
3 288 295 300
3 295 311 300
3 311 305 300
3 305 288 300
3 305 311 317
3 311 328 317
3 328 322 317
3 322 305 317
3 322 328 334
3 328 342 334
3 342 340 334
3 340 322 334
3 149 176 154
3 176 157 154
3 157 129 154
3 129 149 154
3 129 157 133
3 157 141 133
3 141 112 133
3 112 129 133
3 112 141 117
3 141 123 117
3 123 96 117
3 96 112 117
3 96 123 108
3 123 120 108
3 120 88 108
3 88 96 108
3 88 120 99
3 120 115 99
3 115 85 99
3 85 88 99
3 85 115 100
3 115 121 100
3 121 89 100
3 89 85 100
3 89 121 109
3 121 124 109
3 124 97 109
3 97 89 109
3 97 124 118
3 124 142 118
3 142 113 118
3 113 97 118
3 113 142 134
3 142 158 134
3 158 130 134
3 130 113 134
3 130 158 155
3 158 177 155
3 177 150 155
3 150 130 155
3 150 177 174
3 177 198 174
3 198 175 174
3 175 150 174
3 175 198 200
3 198 221 200
3 221 205 200
3 205 175 200
3 205 221 223
3 221 238 223
3 238 225 223
3 225 205 223
3 225 238 242
3 238 255 242
3 255 244 242
3 244 225 242
3 244 255 256
3 255 270 256
3 270 261 256
3 261 244 256
3 261 270 273
3 270 286 273
3 286 278 273
3 278 261 273
3 278 286 290
3 286 302 290
3 302 295 290
3 295 278 290
3 295 302 307
3 302 319 307
3 319 311 307
3 311 295 307
3 311 319 324
3 319 335 324
3 335 328 324
3 328 311 324
3 328 335 339
3 335 345 339
3 345 342 339
3 342 328 339
3 176 206 180
3 206 188 180
3 188 157 180
3 157 176 180
3 157 188 163
3 188 169 163
3 169 141 163
3 141 157 163
3 141 169 145
3 169 160 145
3 160 123 145
3 123 141 145
3 123 160 138
3 160 151 138
3 151 120 138
3 120 123 138
3 120 151 135
3 151 147 135
3 147 115 135
3 115 120 135
3 115 147 136
3 147 152 136
3 152 121 136
3 121 115 136
3 121 152 139
3 152 161 139
3 161 124 139
3 124 121 139
3 124 161 143
3 161 170 143
3 170 142 143
3 142 124 143
3 142 170 164
3 170 189 164
3 189 158 164
3 158 142 164
3 158 189 181
3 189 207 181
3 207 177 181
3 177 158 181
3 177 207 201
3 207 222 201
3 222 198 201
3 198 177 201
3 198 222 219
3 222 234 219
3 234 221 219
3 221 198 219
3 221 234 235
3 234 250 235
3 250 238 235
3 238 221 235
3 238 250 252
3 250 265 252
3 265 255 252
3 255 238 252
3 255 265 268
3 265 281 268
3 281 270 268
3 270 255 268
3 270 281 283
3 281 297 283
3 297 286 283
3 286 270 283
3 286 297 299
3 297 310 299
3 310 302 299
3 302 286 299
3 302 310 315
3 310 327 315
3 327 319 315
3 319 302 315
3 319 327 330
3 327 341 330
3 341 335 330
3 335 319 330
3 335 341 343
3 341 347 343
3 347 345 343
3 345 335 343
3 206 226 210
3 226 214 210
3 214 188 210
3 188 206 210
3 188 214 196
3 214 203 196
3 203 169 196
3 169 188 196
3 169 203 182
3 203 193 182
3 193 160 182
3 160 169 182
3 160 193 172
3 193 190 172
3 190 151 172
3 151 160 172
3 151 190 166
3 190 185 166
3 185 147 166
3 147 151 166
3 147 185 167
3 185 191 167
3 191 152 167
3 152 147 167
3 152 191 173
3 191 194 173
3 194 161 173
3 161 152 173
3 161 194 183
3 194 204 183
3 204 170 183
3 170 161 183
3 170 204 197
3 204 215 197
3 215 189 197
3 189 170 197
3 189 215 211
3 215 227 211
3 227 207 211
3 207 189 211
3 207 227 224
3 227 239 224
3 239 222 224
3 222 207 224
3 222 239 236
3 239 251 236
3 251 234 236
3 234 222 236
3 234 251 249
3 251 262 249
3 262 250 249
3 250 234 249
3 250 262 263
3 262 277 263
3 277 265 263
3 265 250 263
3 265 277 279
3 277 291 279
3 291 281 279
3 281 265 279
3 281 291 292
3 291 306 292
3 306 297 292
3 297 281 292
3 297 306 309
3 306 320 309
3 320 310 309
3 310 297 309
3 310 320 325
3 320 336 325
3 336 327 325
3 327 310 325
3 327 336 338
3 336 344 338
3 344 341 338
3 341 327 338
3 341 344 346
3 344 348 346
3 348 347 346
3 347 341 346
POINT_DATA 349
FIELD attributes 1
U 3 349 float
20 0 0
20 -1.05473e-15 1.43056e-15
20 -1.48801e-15 1.01634e-15
20 0 0
20 -1.2409e-15 1.09232e-15
20 0 0
20 -1.48179e-15 5.60663e-16
20 -1.03352e-15 6.65894e-16
20 -1.55744e-15 9.40087e-16
20 -1.30336e-15 7.05823e-17
20 -6.25226e-16 4.03592e-16
20 -8.63426e-16 9.82312e-16
20 0 0
20 0 0
20 -9.3613e-16 6.59029e-16
20 -1.15741e-15 2.61337e-16
20 -2.01164e-15 -1.98578e-16
20 -8.76951e-16 3.31963e-16
20 -1.79025e-15 2.81829e-17
20 -1.52278e-15 2.98359e-16
20 -7.86337e-16 7.38585e-16
20 -8.18889e-16 1.12743e-16
20 -1.99204e-15 3.96402e-16
20 -4.61781e-16 3.86668e-16
20 -5.04763e-16 6.00976e-16
20 -8.556e-16 3.03549e-16
20 -1.56477e-15 1.66601e-17
20 -1.26338e-15 2.76254e-16
20 -6.19747e-16 1.10972e-15
20 -1.85397e-15 -1.55674e-16
20 -1.70315e-15 3.39184e-16
20 0 0
20 0 0
20 -3.80344e-16 1.57415e-16
20 -1.51545e-15 2.61151e-16
20 -8.83254e-16 8.16157e-17
20 -5.20212e-16 8.41238e-17
20 -6.12e-16 4.98766e-16
20 -9.62638e-16 6.30671e-16
20 -8.59285e-16 1.17125e-16
20 -6.9032e-16 8.17089e-17
20 -3.81857e-16 -4.33112e-16
20 4.87793e-16 9.2567e-17
20 -6.85518e-16 -1.76628e-16
20 -1.07823e-15 -8.69714e-17
20 -6.96925e-16 -1.97459e-16
20 -6.98722e-16 -1.25662e-16
20 -1.23883e-16 2.97189e-16
20 -9.48564e-16 -4.53585e-16
20 -1.25316e-15 1.73207e-16
20 -4.66026e-17 -2.07999e-16
20 -6.37973e-16 4.60999e-16
20 0 0
20 0 0
20 -5.02732e-17 -3.4176e-16
20 -6.46422e-16 4.52278e-16
20 -7.53856e-16 -3.57195e-16
20 1.00051e-16 -2.96435e-16
20 -4.75921e-16 -1.42035e-16
20 -4.59096e-16 -4.53425e-16
20 1.57428e-16 6.14463e-17
20 -5.15479e-16 -4.47128e-16
20 -1.93896e-16 -1.79396e-16
20 -3.54815e-16 -7.15544e-16
20 1.14404e-15 5.11511e-17
20 -5.4543e-16 2.31831e-17
20 -5.21112e-16 -3.48793e-16
20 -2.37778e-16 -4.16351e-16
20 6.15208e-18 1.35217e-16
20 -8.43055e-17 5.51421e-16
20 -3.64152e-16 -3.36353e-16
20 1.7652e-16 -7.34399e-16
20 -1.79888e-16 -5.48579e-16
20 -2.85588e-16 4.53811e-16
20 -8.43422e-16 -7.55968e-16
20 -2.17507e-16 -3.35911e-16
20 -4.00305e-16 -3.03933e-16
20 -2.7577e-16 -7.32738e-16
20 6.14223e-17 8.07141e-16
20 0 0
20 0 0
20 -2.4857e-16 -3.40802e-16
20 -9.34506e-17 1.98095e-16
20 -8.70071e-17 -4.64403e-16
20 1.13551e-16 3.45301e-16
20 2.5864e-16 -8.33712e-16
20 0 0
20 -6.61505e-16 -4.47499e-16
20 5.40719e-17 -5.36196e-16
20 1.26992e-16 -6.29438e-16
20 -1.27493e-16 -8.71581e-17
20 -9.85671e-17 -6.22427e-18
20 -3.32187e-16 -4.0595e-16
20 -8.11565e-17 3.32651e-16
20 0 0
20 -3.13071e-16 -2.1514e-16
20 -2.2511e-16 -5.32452e-17
20 1.08026e-16 -2.74473e-16
20 -9.02964e-16 -1.72185e-16
20 4.7434e-16 -1.0794e-15
20 5.63588e-16 -9.72466e-16
20 7.68206e-17 -2.16133e-16
20 -3.29932e-16 2.52261e-16
20 -5.35482e-16 -5.25488e-16
20 -7.55373e-17 -9.61832e-17
20 -1.42761e-16 1.70857e-16
20 6.14743e-16 -3.38035e-18
20 -6.70106e-16 1.9026e-16
20 -2.17066e-16 4.92665e-18
20 5.24574e-16 -6.92775e-16
20 0 0
20 -5.3114e-17 2.14972e-16
20 9.41917e-17 -1.05509e-16
20 -2.17078e-17 -3.29598e-16
20 0 0
20 5.2636e-16 -1.26673e-15
20 2.25189e-16 4.27121e-16
20 -1.33679e-16 5.23953e-16
20 3.88991e-16 -4.33836e-16
20 -1.21166e-15 -1.81033e-16
20 1.49717e-16 -7.96213e-16
20 4.93305e-16 -9.90963e-16
20 -7.10176e-16 4.33917e-17
20 3.0733e-17 -1.82043e-16
20 4.30621e-16 -5.30123e-16
20 4.38468e-17 -3.22294e-17
20 -5.68283e-16 -1.59213e-16
20 0 0
20 -4.41749e-16 1.85654e-17
20 2.86583e-16 -3.48441e-16
20 -2.11252e-16 -4.73168e-16
20 -1.49486e-15 8.946e-17
20 -1.96317e-16 2.68135e-16
20 2.27889e-16 -5.36657e-16
20 2.75441e-16 -1.40747e-15
20 3.66586e-16 -1.37817e-15
20 7.00927e-16 -1.63687e-15
20 -1.91334e-15 -1.15919e-16
20 -2.49919e-17 -7.32201e-16
20 1.8413e-16 -6.61738e-16
20 -2.84918e-16 2.81305e-16
20 1.17036e-16 -5.6796e-16
20 2.90487e-16 -9.336e-16
20 6.24788e-16 -3.32142e-16
20 -6.17072e-16 3.87853e-16
20 4.98669e-16 -5.24851e-16
20 0 0
20 4.94908e-16 -1.08086e-15
20 -1.57863e-15 4.00462e-17
20 0 0
20 -3.04591e-16 -1.95267e-16
20 1.36455e-16 -7.43402e-16
20 4.92051e-16 -6.43327e-16
20 -8.59636e-16 -2.05518e-16
20 2.59853e-16 -8.21496e-16
20 1.17941e-16 -5.16251e-16
20 -5.0501e-16 2.43514e-17
20 1.27395e-16 -9.71651e-16
20 -1.75605e-16 -9.23247e-16
20 -1.08687e-15 9.71444e-17
20 2.14605e-16 -3.80621e-16
20 1.51221e-16 -1.67912e-16
20 -5.51473e-16 4.2113e-17
20 -1.24734e-16 -1.73429e-15
20 -1.27273e-16 -1.56095e-15
20 -1.66965e-15 2.36285e-16
20 1.54035e-16 -7.3058e-16
20 7.58084e-16 -5.77823e-16
20 -4.26468e-16 1.61078e-16
20 2.34591e-16 -6.74973e-16
20 -8.80607e-17 -5.55673e-16
20 -1.23669e-15 -4.96417e-17
20 5.01893e-17 -1.32655e-16
20 3.25064e-16 3.03125e-16
20 9.16142e-17 9.99141e-17
20 -2.19022e-16 -1.31055e-16
20 0 0
20 -3.75385e-16 -2.66763e-16
20 -5.80358e-16 1.66286e-16
20 -4.12613e-16 -7.32406e-18
20 1.46572e-16 -7.94166e-16
20 -9.6853e-16 -2.08317e-16
20 3.34555e-16 -1.32776e-16
20 -5.29098e-16 1.91077e-17
20 0 0
20 4.5606e-16 0
20 -1.30102e-15 3.90402e-16
20 -4.96836e-16 -1.68156e-16
20 9.77636e-17 -6.41483e-16
20 -5.42041e-16 -4.31002e-16
20 1.02112e-16 0
20 5.41574e-16 0
20 -5.90698e-16 4.50668e-16
20 1.92372e-16 0
20 -1.02017e-16 0
20 4.30331e-17 4.80607e-17
20 2.29875e-16 -3.07978e-16
20 -3.20659e-16 -3.48706e-16
20 -4.19538e-16 -4.62578e-16
20 -1.59009e-15 5.82684e-16
20 3.04547e-16 -4.1129e-16
20 -7.42567e-16 -4.42397e-16
20 -1.73857e-17 1.25699e-16
20 2.82215e-16 0
20 -4.24879e-16 0
20 -4.08599e-16 -5.58331e-16
20 0 0
20 -7.64814e-16 -1.27653e-16
20 -7.07661e-16 7.92281e-16
20 -1.06629e-15 -7.55474e-16
20 1.39342e-16 2.705e-16
20 -7.51701e-16 3.93967e-16
20 1.61921e-16 8.93745e-16
20 -5.01446e-16 -7.24828e-16
20 1.84608e-16 0
20 -5.3618e-16 0
20 0 0
20 -1.06342e-15 3.58145e-16
20 3.05861e-16 -6.05294e-16
20 -1.33174e-15 -1.09654e-15
20 -3.33356e-16 4.01629e-16
20 -7.27875e-16 -7.02215e-16
20 -8.2279e-16 -5.27704e-16
20 -4.60038e-16 -1.05924e-15
20 -5.96458e-16 -2.53865e-16
20 -8.82171e-16 -1.05809e-15
20 6.96708e-17 0
20 -6.74079e-16 0
20 -4.50675e-17 -1.14177e-16
20 -1.36862e-15 2.38106e-16
20 -5.87317e-16 -1.80491e-16
20 -1.28839e-15 -1.58661e-15
20 -2.00365e-16 1.0098e-16
20 -6.62549e-16 -1.04383e-15
20 -1.12023e-15 -3.39314e-16
20 -1.42426e-15 -2.41797e-16
20 -6.20389e-16 -3.18017e-16
20 0 0
20 -8.90771e-16 -6.422e-16
20 -6.08423e-16 0
20 -9.115e-16 -4.83861e-16
20 -4.47687e-16 -8.4614e-16
20 -7.13966e-16 -8.31029e-16
20 -4.04044e-16 -5.31556e-16
20 -1.24836e-15 -1.02121e-15
20 -3.76034e-16 -8.35946e-16
20 -1.43998e-15 -7.62287e-16
20 -1.21998e-15 -1.13728e-15
20 -2.50078e-16 -1.23077e-15
20 -1.10451e-15 2.99096e-16
20 -1.20091e-15 -6.67805e-17
20 -8.62451e-16 0
20 -9.64814e-16 -4.36737e-16
20 -8.82875e-16 -1.27617e-15
20 -5.78417e-16 -8.15942e-16
20 -1.38873e-15 -5.64354e-16
20 -1.77109e-15 -5.29913e-16
20 0 0
20 -1.05078e-15 -1.39069e-15
20 -2.77669e-16 -1.78268e-15
20 -6.51295e-16 -1.35415e-15
20 -1.49806e-15 -8.53735e-16
20 -1.20729e-15 0
20 -1.31006e-15 1.12316e-16
20 -6.04054e-16 -1.36662e-15
20 -1.59457e-15 -1.82247e-16
20 -1.58616e-15 -1.33858e-15
20 -1.85995e-15 -1.2354e-15
20 -2.10507e-15 -4.59735e-16
20 -6.53107e-16 -2.33428e-15
20 -1.74899e-15 -4.34472e-16
20 -8.28718e-16 -1.66958e-15
20 -1.12358e-15 -1.0356e-15
20 -1.415e-15 -4.09167e-16
20 0 0
20 -4.36553e-16 -1.83227e-15
20 -1.41429e-15 -1.51385e-15
20 -1.65419e-15 0
20 -1.36698e-15 -1.17949e-15
20 -1.99833e-15 5.51697e-17
20 -8.54764e-16 -1.43973e-15
20 -1.87228e-15 -1.589e-16
20 -1.01449e-15 -1.72478e-15
20 -1.7048e-15 -3.39072e-16
20 -6.85156e-16 -1.01281e-15
20 -2.13025e-15 -7.67342e-16
20 -1.55301e-15 -7.14997e-16
20 -1.01386e-15 -1.71838e-15
20 -6.5014e-16 -1.37658e-15
20 -6.28513e-16 -6.70667e-16
20 -1.45227e-15 -1.24543e-15
20 -1.83963e-15 0
20 -1.68092e-15 1.08039e-16
20 -5.51977e-16 -5.12721e-16
20 0 0
20 -1.19965e-15 -1.49207e-15
20 -1.88288e-15 -7.39976e-16
20 -1.7243e-15 -1.85058e-16
20 -9.28299e-16 -1.15906e-15
20 -1.63996e-15 -8.6632e-16
20 -5.97544e-16 -1.43656e-15
20 -5.25521e-16 -8.26284e-16
20 -1.63478e-15 -1.21409e-15
20 -3.06085e-15 4.5731e-16
20 -1.32654e-15 -9.31491e-16
20 -3.51016e-16 -1.01159e-15
20 -1.77621e-15 0
20 -1.73428e-15 -1.56152e-15
20 -7.44281e-16 -1.31571e-15
20 -1.8715e-15 3.5712e-16
20 -1.75413e-15 -4.41418e-16
20 -7.79498e-16 -1.33867e-15
20 -1.77314e-16 -8.0604e-16
20 0 0
20 -2.19949e-15 -1.69164e-16
20 -1.71259e-15 -1.18308e-15
20 -1.25206e-15 -1.01522e-15
20 -7.72306e-17 -1.29104e-15
20 -7.22365e-16 -1.04318e-15
20 -1.21455e-15 -1.16118e-15
20 -1.83199e-15 0
20 -2.89103e-15 5.3448e-16
20 -2.50117e-16 -1.20848e-15
20 -1.51954e-15 -7.36952e-16
20 -7.08933e-16 -1.06557e-15
20 -1.79248e-15 -7.33855e-17
20 -1.41788e-15 -1.07675e-15
20 -1.16943e-15 -5.70248e-16
20 -3.28166e-16 -1.45085e-15
20 -5.49988e-16 -9.74244e-16
20 -7.024e-16 -8.34566e-16
20 -1.44551e-15 2.6724e-16
20 -2.20528e-15 -1.01236e-16
20 -1.46871e-15 -9.06849e-16
20 -1.95935e-16 -1.76258e-15
20 -6.26049e-16 -1.19434e-15
20 -1.13135e-15 0
20 -9.83933e-16 -1.02549e-15
20 -4.70226e-16 -1.89956e-16
20 -3.30565e-16 -1.68421e-15
20 -3.72962e-16 -1.36841e-15
20 -6.4081e-16 -5.93782e-16
20 -2.6325e-16 -1.72339e-15
20 -7.62298e-16 -1.19303e-15
20 -5.49271e-16 0
20 -5.46431e-16 -1.43862e-15
20 -6.28316e-16 -1.57578e-16
20 -6.95307e-16 -6.75303e-16
20 -6.28316e-16 -7.87889e-17
