/*--------------------------------*- C++ -*----------------------------------*\
| =========                 |                                                 |
| \\      /  F ield         | OpenFOAM: The Open Source CFD Toolbox           |
|  \\    /   O peration     | Version:  4.1                                   |
|   \\  /    A nd           | Web:      www.OpenFOAM.org                      |
|    \\/     M anipulation  |                                                 |
\*---------------------------------------------------------------------------*/
FoamFile
{
    version     2.0;
    format      ascii;
    class       volScalarField;
    location    "3";
    object      thickness;
}
// * * * * * * * * * * * * * * * * * * * * * * * * * * * * * * * * * * * * * //

dimensions      [0 0 0 0 0 0 0];

internalField   uniform 0;

boundaryField
{
    wall
    {
        type            fixedValue;
        value           uniform 0;
    }
    inlet
    {
        type            fixedValue;
        value           uniform 0;
    }
    outlet
    {
        type            fixedValue;
        value           nonuniform 0();
    }
    Wand_Inlet
    {
        type            fixedValue;
        value           nonuniform List<scalar> 
500
(
0
0
0
0
0
0
0
0
0
0
0
0
0
0
0
0
0
0
0
0
0
0
0
0
0
0
0
0
0
0
0
0
7.38725
7.38266
7.38726
7.38726
7.38725
7.38266
7.38726
7.38726
4.64891
7.3521
1.32788
7.38725
7.38266
7.38726
7.38726
4.64891
7.3521
1.32788
7.38725
7.38266
7.38726
7.38726
4.64891
7.3521
1.32788
4.64891
7.3521
1.32788
7.38723
7.38681
7.38726
7.38726
7.38726
7.38726
7.38726
7.38726
7.38726
7.38726
7.38726
7.38726
7.38725
7.38726
7.38725
7.38726
7.38723
7.38726
7.38725
7.38726
7.38726
7.38726
7.38726
7.38723
7.38681
7.38726
7.38726
7.38726
7.38726
7.38725
7.38726
7.38726
7.38726
7.38726
7.38726
7.38726
7.38726
7.38726
7.38725
7.38726
7.38725
7.38726
7.38723
7.38726
7.38726
7.38726
6.5109
7.18449
1.37165
1.79194
1.46906
1.37164
1.79194
6.64228
4.87382
4.92885
6.64228
4.87381
7.38723
7.38681
7.38726
7.38726
7.38726
7.38726
7.38726
7.38726
7.38726
7.38726
7.38726
7.38726
7.38725
7.38726
7.38726
7.38725
7.38726
7.38723
7.38726
7.38726
7.38726
6.5109
7.18449
1.37164
1.79193
1.37165
1.79195
6.64227
4.7398
6.56209
4.87381
6.64228
4.87382
4.92885
7.38723
7.38681
7.38726
7.38726
7.38726
7.38726
7.38726
7.38726
7.38726
7.38726
7.38726
7.38726
7.38725
7.38726
7.38723
7.38726
7.38726
7.38725
7.38726
7.38726
7.38726
7.38726
6.5109
7.18449
1.37165
1.79194
1.37164
1.79194
1.46906
6.64228
4.73981
6.56209
4.87382
6.64228
4.87381
4.92885
6.5109
7.18449
1.37164
1.79194
1.46906
1.37165
1.79194
6.64228
4.73981
4.87381
4.92885
6.64228
4.87382
7.38726
7.38725
7.3845
7.3845
7.38725
7.38725
7.3845
7.3845
7.36324
7.36324
7.38725
7.38726
7.3845
7.3845
7.36324
7.36324
7.38725
7.38725
7.3845
7.3845
7.36324
7.36324
7.36324
7.36324
7.38726
7.38726
7.38726
7.38726
7.38726
7.38726
1.46906
4.92885
7.38726
1.46906
1.46907
4.92885
7.38726
1.46906
4.92885
1.46906
4.92885
7.38726
7.38726
7.38726
7.38726
7.38726
7.38725
7.38702
7.38708
7.38497
7.38702
7.38708
7.38497
7.38725
7.38726
7.38725
7.38726
7.38726
7.38725
7.38702
7.38708
7.38497
7.38702
7.38708
7.38497
7.23223
7.24114
7.36584
7.23223
7.24113
7.36584
7.38726
7.38726
7.38725
7.38726
7.38726
7.38725
7.38702
7.38708
7.38497
7.38702
7.38708
7.38497
7.23223
7.24113
7.36584
7.23223
7.24114
7.36584
7.38726
7.38726
7.38725
7.38726
7.38726
7.38726
7.38702
7.38708
7.38497
7.38702
7.38708
7.38497
7.23223
7.24114
7.36584
7.23223
7.24113
7.36584
7.23223
7.24113
7.36584
7.23223
7.24114
7.36584
7.38726
7.38723
7.38691
7.38726
7.38726
7.38726
7.38726
7.38726
7.38726
7.38726
7.38726
7.38726
7.38725
7.38706
7.38349
7.38691
7.38472
7.38724
7.38725
7.38726
7.38706
7.38349
7.38472
7.38724
7.38725
7.38726
7.38726
7.38723
7.38691
7.38726
7.38726
7.38726
7.38726
7.38725
7.38726
7.38726
7.38726
7.38726
7.38726
7.38706
7.38349
7.38691
7.38472
7.38724
7.38725
7.38726
7.38706
7.38349
7.38472
7.38724
7.38725
7.38726
4.73981
4.7398
6.56209
6.56209
7.20351
1.80958
1.80958
7.23326
7.35686
7.36414
7.20351
6.66581
6.6526
4.90859
7.23326
7.35686
7.36414
6.66581
6.6526
4.90858
7.38726
7.38723
7.38349
7.38691
7.38691
7.38726
7.38726
7.38726
7.38726
7.38726
7.38726
7.38726
7.38726
7.38726
7.38726
7.38726
7.38725
7.38726
7.38725
7.38706
7.38349
7.38472
7.38725
7.38724
7.38726
7.38706
7.38472
7.38725
7.38724
7.38726
4.73981
6.56209
7.35686
1.80957
1.80958
7.23326
7.35686
7.36414
7.20351
6.6526
6.66581
4.90858
7.23326
7.36414
7.20352
6.65261
6.66582
4.90859
7.38723
7.38349
7.38349
7.38691
7.38691
7.38726
7.38726
7.38726
7.38726
7.38725
7.38726
7.38725
7.38726
7.38726
7.38726
7.38726
7.38726
7.38726
7.38726
7.38706
7.38472
7.38724
7.38725
7.38726
7.38706
7.38472
7.38724
7.38725
7.38726
4.7398
6.56209
1.80958
1.80958
7.23326
7.35686
7.36414
7.20351
6.6526
6.66581
4.90859
7.23326
7.35686
7.36414
7.20351
6.6526
6.66581
4.90858
4.73981
6.56209
6.56209
1.80958
1.80958
7.23326
7.35686
7.36414
7.20351
6.6526
6.66581
4.90859
7.23326
7.35686
7.36414
7.20351
6.6526
6.66581
4.90859
)
;
    }
    Wand_Outlet
    {
        type            fixedValue;
        value           nonuniform List<scalar> 
168
(
0
0
0
0
0
0
0
0
0
0
0
0
0
0
0
0
0
0
0
0
0
0
0
0
0
0
0
0
0
0
0
0
0
0
0
0
0
0
0
0
0
0
0
0
11.7493
11.7514
4.11699
4.11591
6.77685
6.82051
3.8887
1.56426
1.56385
3.49527
3.46234
2.5462
7.43329
5.63377
3.36403
2.54588
7.43283
5.63345
3.36356
10.6185
9.60743
10.6213
9.61011
0.95541
2.1163
0.955302
2.11619
2.89802
8.47088
4.0263
2.93367
8.47917
4.02691
6.13336
5.07255
4.48009
0.857243
2.34338
0.85753
6.09145
1.33121
0.540937
0.772657
0.774742
7.02328
3.9054
6.62971
1.0444
3.01369
0.609346
1.04324
3.01146
0.610154
6.94611
2.75336
0.714729
5.11277
4.22954
2.21436
2.43088
0.584058
6.11166
6.12106
6.85695
6.84134
6.60045
5.65052
3.46139
6.59639
5.64965
5.01367
5.92563
6.40201
6.73118
8.19676
8.19955
0.457516
0.457205
5.09406
3.22921
1.3028
5.10216
3.22916
1.3026
5.65372
5.61041
5.98782
5.00463
4.88555
5.84082
3.01772
1.698
2.34269
0.232062
3.79769
1.37412
0.232248
3.8005
1.37547
3.64481
1.90211
2.53096
4.78189
4.47351
3.94809
5.33737
4.13656
2.55875
4.28187
1.61973
6.75984
6.44651
0.822778
6.55993
6.23739
5.96351
6.72524
5.98787
6.74086
4.22896
1.55721
4.25498
1.56802
1.63185
)
;
    }
    Wand_TankOben
    {
        type            fixedValue;
        value           uniform 0;
    }
    Wand_TankUnten
    {
        type            fixedValue;
        value           uniform 0;
    }
    Wand_Tankwand
    {
        type            fixedValue;
        value           uniform 0;
    }
}


// ************************************************************************* //
