/*--------------------------------*- C++ -*----------------------------------*\
| =========                 |                                                 |
| \\      /  F ield         | OpenFOAM: The Open Source CFD Toolbox           |
|  \\    /   O peration     | Version:  4.1                                   |
|   \\  /    A nd           | Web:      www.OpenFOAM.org                      |
|    \\/     M anipulation  |                                                 |
\*---------------------------------------------------------------------------*/
FoamFile
{
    version     2.0;
    format      ascii;
    class       volScalarField;
    location    "3";
    object      thicknessFraction;
}
// * * * * * * * * * * * * * * * * * * * * * * * * * * * * * * * * * * * * * //

dimensions      [0 0 0 0 0 0 0];

internalField   uniform 0;

boundaryField
{
    wall
    {
        type            fixedValue;
        value           uniform 0;
    }
    inlet
    {
        type            fixedValue;
        value           uniform 0;
    }
    outlet
    {
        type            fixedValue;
        value           nonuniform 0();
    }
    Wand_Inlet
    {
        type            fixedValue;
        value           nonuniform List<scalar> 
500
(
0
0
0
0
0
0
0
0
0
0
0
0
0
0
0
0
0
0
0
0
0
0
0
0
0
0
0
0
0
0
0
0
1
0.999378
1
1
1
0.999378
1
1
0.629314
0.99524
0.179753
1
0.999378
1
1
0.629314
0.99524
0.179753
1
0.999378
1
1
0.629314
0.99524
0.179753
0.629314
0.99524
0.179753
0.999996
0.99994
1
1
1
1
1
1
1
1
1
1
1
1
0.999999
1
0.999997
1
0.999999
1
1
1
1
0.999996
0.99994
1
1
1
1
1
1
1
1
1
1
1
1
1
0.999999
1
0.999999
1
0.999997
1
1
1
0.88137
0.972552
0.185678
0.242572
0.198865
0.185677
0.242571
0.899154
0.65976
0.66721
0.899153
0.659759
0.999996
0.99994
1
1
1
1
1
1
1
1
1
1
0.999999
1
1
0.999999
1
0.999997
1
1
1
0.88137
0.972552
0.185677
0.242571
0.185678
0.242572
0.899153
0.641618
0.888298
0.659759
0.899154
0.659761
0.66721
0.999996
0.99994
1
1
1
1
1
1
1
1
1
1
0.999999
1
0.999997
1
1
0.999999
1
1
1
1
0.88137
0.972552
0.185678
0.242572
0.185677
0.242571
0.198865
0.899154
0.64162
0.888299
0.65976
0.899153
0.659759
0.66721
0.88137
0.972552
0.185677
0.242571
0.198865
0.185677
0.242572
0.899153
0.641619
0.659759
0.66721
0.899154
0.65976
1
1
0.999627
0.999627
0.999999
0.999999
0.999627
0.999627
0.996749
0.996749
0.999999
1
0.999627
0.999627
0.996749
0.996749
0.999999
1
0.999627
0.999627
0.996749
0.996749
0.996749
0.996749
1
1
1
1
1
1
0.198865
0.66721
1
0.198864
0.198865
0.667209
1
0.198865
0.66721
0.198865
0.66721
1
1
1
1
1
1
0.999968
0.999976
0.999691
0.999968
0.999976
0.999691
1
1
0.999999
1
1
1
0.999968
0.999976
0.999691
0.999968
0.999976
0.999691
0.979015
0.98022
0.997101
0.979015
0.98022
0.997101
1
1
1
1
1
1
0.999968
0.999976
0.999691
0.999968
0.999976
0.999691
0.979015
0.98022
0.997101
0.979015
0.98022
0.997101
1
1
1
1
1
1
0.999968
0.999976
0.999691
0.999968
0.999976
0.999691
0.979015
0.98022
0.997101
0.979015
0.98022
0.997101
0.979015
0.98022
0.997101
0.979015
0.98022
0.997101
1
0.999997
0.999953
1
1
1
1
1
1
1
1
1
1
0.999973
0.999491
0.999953
0.999657
0.999998
0.999999
1
0.999973
0.999491
0.999657
0.999998
0.999999
1
1
0.999997
0.999953
1
1
1
1
0.999999
1
1
1
1
1
0.999973
0.999491
0.999953
0.999657
0.999998
0.999999
1
0.999973
0.999491
0.999657
0.999998
0.999999
1
0.64162
0.641619
0.888299
0.888298
0.975127
0.24496
0.244959
0.979154
0.995886
0.996871
0.975127
0.902339
0.900551
0.664467
0.979154
0.995886
0.996871
0.902339
0.900551
0.664467
1
0.999997
0.999491
0.999953
0.999953
1
1
1
1
1
1
1
1
1
1
1
1
1
1
0.999973
0.999491
0.999657
0.999999
0.999998
1
0.999973
0.999657
0.999999
0.999998
1
0.64162
0.888299
0.995886
0.244959
0.24496
0.979154
0.995886
0.996871
0.975127
0.900551
0.902339
0.664466
0.979154
0.996871
0.975127
0.900552
0.90234
0.664468
0.999997
0.999491
0.999491
0.999953
0.999953
1
1
1
1
1
1
1
1
1
1
1
1
1
1
0.999973
0.999657
0.999998
0.999999
1
0.999973
0.999657
0.999998
0.999999
1
0.641619
0.888299
0.24496
0.244959
0.979154
0.995886
0.996871
0.975127
0.900551
0.902339
0.664467
0.979154
0.995886
0.996871
0.975127
0.900551
0.902339
0.664467
0.64162
0.888298
0.888299
0.244959
0.24496
0.979154
0.995886
0.996871
0.975127
0.900551
0.902339
0.664467
0.979154
0.995886
0.996871
0.975127
0.900551
0.902339
0.664467
)
;
    }
    Wand_Outlet
    {
        type            fixedValue;
        value           nonuniform List<scalar> 
168
(
0
0
0
0
0
0
0
0
0
0
0
0
0
0
0
0
0
0
0
0
0
0
0
0
0
0
0
0
0
0
0
0
0
0
0
0
0
0
0
0
0
0
0
0
0.795243
0.795383
0.557309
0.557164
0.655265
0.659486
0.526406
0.181501
0.181453
0.473148
0.468691
0.172337
0.503116
0.381317
0.227691
0.172316
0.503084
0.381295
0.22766
0.718701
0.65027
0.718893
0.650452
0.0646661
0.14324
0.0646588
0.143233
0.261534
0.573344
0.272517
0.26475
0.573905
0.272558
0.830263
0.686662
0.606462
0.116043
0.317219
0.116082
0.824589
0.180204
0.0732257
0.104593
0.104875
0.950729
0.528668
0.897452
0.141378
0.407958
0.0824861
0.141222
0.407656
0.0825954
0.940283
0.372717
0.0967516
0.692106
0.572546
0.299753
0.329065
0.0790629
0.827325
0.828598
0.928213
0.9261
0.893492
0.764902
0.468563
0.892942
0.764783
0.678692
0.802142
0.866629
0.911188
0.554791
0.55498
0.0619331
0.061891
0.344787
0.218566
0.0881787
0.345335
0.218563
0.0881654
0.765335
0.759471
0.810561
0.677468
0.661349
0.790662
0.408504
0.229856
0.317126
0.0314138
0.514087
0.186012
0.031439
0.514467
0.186195
0.493392
0.257485
0.342612
0.647316
0.605571
0.534446
0.722511
0.559959
0.346374
0.579629
0.219259
0.915068
0.872653
0.111378
0.888006
0.844344
0.80727
0.910384
0.810568
0.912498
0.572466
0.210796
0.575989
0.21226
0.220901
)
;
    }
    Wand_TankOben
    {
        type            fixedValue;
        value           uniform 0;
    }
    Wand_TankUnten
    {
        type            fixedValue;
        value           uniform 0;
    }
    Wand_Tankwand
    {
        type            fixedValue;
        value           uniform 0;
    }
}


// ************************************************************************* //
