/*--------------------------------*- C++ -*----------------------------------*\
| =========                 |                                                 |
| \\      /  F ield         | OpenFOAM: The Open Source CFD Toolbox           |
|  \\    /   O peration     | Version:  4.1                                   |
|   \\  /    A nd           | Web:      www.OpenFOAM.org                      |
|    \\/     M anipulation  |                                                 |
\*---------------------------------------------------------------------------*/
FoamFile
{
    version     2.0;
    format      ascii;
    class       volScalarField;
    location    "3";
    object      nSurfaceLayers;
}
// * * * * * * * * * * * * * * * * * * * * * * * * * * * * * * * * * * * * * //

dimensions      [0 0 0 0 0 0 0];

internalField   uniform 0;

boundaryField
{
    defaultFaces
    {
        type            empty;
    }
    Wand_Inlet
    {
        type            fixedValue;
        value           uniform 4;
    }
    Wand_Outlet
    {
        type            fixedValue;
        value           nonuniform List<scalar> 
78
(
0
0
0
0
0
0
0
0
0
0
0
0
0
0
0
0
0
0
0
0
0
0
0
0
0
0
0
0
0
0
0
0
0
0
0
0
0
0
0
0
0
0
0
0
0
0
1
1
1
1
1
1
1
1
1
1
1
1
1
1
1
1
1
2
2
2
2
1
2
2
1
2
2
2
2
2
1
2
)
;
    }
    Wand_TankOben
    {
        type            fixedValue;
        value           uniform 0;
    }
    Wand_TankUnten
    {
        type            fixedValue;
        value           uniform 0;
    }
    Wand_Tankwand
    {
        type            fixedValue;
        value           uniform 0;
    }
}


// ************************************************************************* //
