/*--------------------------------*- C++ -*----------------------------------*\
| =========                 |                                                 |
| \\      /  F ield         | OpenFOAM: The Open Source CFD Toolbox           |
|  \\    /   O peration     | Version:  4.1                                   |
|   \\  /    A nd           | Web:      www.OpenFOAM.org                      |
|    \\/     M anipulation  |                                                 |
\*---------------------------------------------------------------------------*/
FoamFile
{
    version     2.0;
    format      ascii;
    class       volScalarField;
    location    "3";
    object      thickness;
}
// * * * * * * * * * * * * * * * * * * * * * * * * * * * * * * * * * * * * * //

dimensions      [0 0 0 0 0 0 0];

internalField   uniform 0;

boundaryField
{
    defaultFaces
    {
        type            empty;
    }
    Wand_Inlet
    {
        type            fixedValue;
        value           nonuniform List<scalar> 
140
(
6.65093
6.65086
14.5274
14.5274
6.65031
6.65057
14.5274
14.5274
14.7373
14.7373
6.65066
6.65057
14.5274
14.5274
14.7373
14.7373
6.65009
6.65031
14.5273
14.5273
14.7373
14.7373
14.7373
14.7373
13.6926
14.5284
11.284
7.4861
11.2839
7.486
14.5297
13.6269
14.5297
13.6269
13.6922
14.5282
11.2835
7.48532
11.2836
7.48558
14.5296
13.6267
14.5296
13.6267
14.7701
14.7355
14.7742
14.7742
14.7366
14.7706
14.7366
14.7706
13.6922
14.5283
11.2838
7.48577
11.2837
7.48545
14.5297
13.6268
14.5296
13.6268
14.7701
14.7355
14.7742
14.7742
14.7366
14.7706
14.7366
14.7706
13.6918
14.5281
11.2833
7.48508
11.2834
7.4851
14.5295
13.6265
14.5295
13.6266
14.7701
14.7354
14.7742
14.7742
14.7366
14.7706
14.7366
14.7706
14.7701
14.7355
14.7742
14.7742
14.7366
14.7706
14.7366
14.7706
11.5577
11.5576
11.7232
8.04636
13.6715
13.6714
11.557
11.5572
11.7226
8.04585
13.671
13.6712
14.7742
14.7741
14.7742
14.7703
14.7704
11.5573
11.7227
8.04601
11.5571
13.6713
13.6711
14.7742
14.7741
14.7742
14.7704
14.7704
11.5567
11.7222
8.04562
11.5567
13.6708
13.6708
14.7742
14.7741
14.7742
14.7703
14.7703
14.7742
14.7742
14.7741
14.7704
14.7704
)
;
    }
    Wand_Outlet
    {
        type            fixedValue;
        value           nonuniform List<scalar> 
78
(
0
0
0
0
0
0
0
0
0
0
0
0
0
0
0
0
0
0
0
0
0
0
0
0
0
0
0
0
0
0
0
0
0
0
0
0
0
0
0
0
0
0
0
0
0
0
1.87722
1.87984
1.81329
1.81157
2.52934
1.95349
0.78041
2.53112
1.95622
0.781839
1.91972
0.715289
2.23994
1.9188
0.714754
2.24035
3.31072
6.83932
6.84015
7.38794
7.38745
2.76245
6.19636
4.72464
2.76293
6.19928
4.72934
6.4686
4.69283
6.46694
3.31058
4.68994
)
;
    }
    Wand_TankOben
    {
        type            fixedValue;
        value           uniform 0;
    }
    Wand_TankUnten
    {
        type            fixedValue;
        value           uniform 0;
    }
    Wand_Tankwand
    {
        type            fixedValue;
        value           uniform 0;
    }
}


// ************************************************************************* //
