/*--------------------------------*- C++ -*----------------------------------*\
| =========                 |                                                 |
| \\      /  F ield         | OpenFOAM: The Open Source CFD Toolbox           |
|  \\    /   O peration     | Version:  4.1                                   |
|   \\  /    A nd           | Web:      www.OpenFOAM.org                      |
|    \\/     M anipulation  |                                                 |
\*---------------------------------------------------------------------------*/
FoamFile
{
    version     2.0;
    format      ascii;
    class       volVectorField;
    location    "590";
    object      U;
}
// * * * * * * * * * * * * * * * * * * * * * * * * * * * * * * * * * * * * * //

dimensions      [0 1 -1 0 0 0 0];

internalField   nonuniform List<vector> 
1000
(
(-1.80773e-17 -1.9827e-17 -1.69337e-17)
(-1.14946e-17 -4.47379e-18 -6.09665e-18)
(-7.32284e-18 -1.11845e-18 -2.69006e-18)
(-3.94746e-18 0 -1.15494e-18)
(-2.46716e-18 -9.25043e-20 8.76805e-20)
(-4.93432e-19 -6.05476e-19 5.11708e-19)
(-4.93432e-19 -1.21095e-18 -5.11708e-19)
(-1.59234e-18 -6.05476e-19 -8.76805e-20)
(-1.18882e-18 0 1.02342e-18)
(-5.83438e-19 0 1.55821e-18)
(-3.44784e-18 -1.0732e-17 -6.14049e-18)
(-3.52353e-18 -4.16252e-18 -2.89543e-18)
(-3.65511e-18 -1.87752e-18 -1.26883e-18)
(-2.68346e-18 -9.71654e-19 -5.53264e-19)
(-1.7118e-18 -5.13591e-19 -4.57337e-20)
(-7.40149e-19 -7.24938e-19 1.62298e-19)
(-4.93432e-19 -1.18795e-18 -2.99499e-19)
(-2.46716e-19 -7.40149e-19 3.12047e-19)
(2.01584e-20 -2.77138e-19 5.07531e-19)
(9.25043e-20 -6.84127e-19 4.67868e-19)
(-2.23689e-18 -6.44801e-18 -2.04683e-18)
(-2.30516e-18 -3.90183e-18 -1.73062e-18)
(-2.42153e-18 -2.42153e-18 -5.07531e-19)
(-1.7118e-18 -1.4803e-18 -1.49749e-19)
(-1.23358e-18 -1.46509e-18 5.8282e-20)
(-9.86865e-19 -7.40149e-19 3.12047e-19)
(-7.5536e-19 -9.86865e-19 3.57781e-19)
(-2.92349e-19 -5.08643e-19 -4.57337e-20)
(-2.26558e-19 -5.39065e-19 2.99499e-19)
(-5.12971e-19 -9.86865e-19 0)
(-1.11845e-18 -3.98085e-18 -4.67868e-19)
(-1.3993e-18 -2.66825e-18 -5.8282e-20)
(-1.4803e-18 -1.4803e-18 0)
(-1.72701e-18 -1.00208e-18 4.03515e-19)
(-1.21837e-18 -7.5536e-19 5.65813e-19)
(-2.61927e-19 -1.00208e-18 3.12047e-19)
(-2.61927e-19 -7.85781e-19 2.08032e-19)
(-4.56326e-20 -2.46716e-19 -1.95483e-19)
(-2.77138e-19 -9.56443e-19 2.53765e-19)
(-6.05476e-19 -1.40165e-18 4.67868e-19)
(-1.02594e-18 -2.7699e-18 3.80187e-19)
(-9.00915e-19 -2.22045e-18 5.07531e-19)
(-1.00208e-18 -1.2287e-18 4.03515e-19)
(-7.40149e-19 -1.4803e-18 1.49749e-19)
(-1.23358e-18 -5.59149e-19 -4.57337e-20)
(-1.01729e-18 -7.85769e-19 5.65813e-19)
(-2.46716e-19 -8.19754e-19 2.53765e-19)
(-7.09727e-19 -5.69181e-19 5.65813e-19)
(-9.21074e-19 -1.18795e-18 5.20079e-19)
(-1.11845e-18 -1.47486e-18 8.91895e-19)
(-5.12971e-19 -1.94034e-18 4.67868e-19)
(-4.42852e-19 -1.74222e-18 0)
(-7.40149e-19 -1.21349e-18 5.07531e-19)
(-7.7057e-19 -1.95852e-18 4.61797e-19)
(-2.77138e-19 -1.28409e-18 3.57781e-19)
(-2.46716e-19 -2.77126e-19 8.3385e-36)
(-1.52109e-20 -5.57827e-19 -3.27408e-36)
(-4.63011e-19 -1.0474e-18 -1.01506e-18)
(-1.5498e-18 -7.7057e-19 2.66314e-19)
(-2.23689e-18 -7.57339e-19 8.04214e-19)
(-1.21095e-18 -1.4803e-18 6.43228e-19)
(-4.63011e-19 -1.4803e-18 0)
(-9.71654e-19 -1.72701e-18 1.49749e-19)
(-7.7057e-19 -1.27921e-18 8.65312e-19)
(2.01084e-19 -9.86865e-19 5.53264e-19)
(-2.61927e-19 -7.40149e-19 2.99499e-19)
(-4.93432e-19 -7.5536e-19 0)
(-4.78222e-19 -1.46509e-18 -1.49749e-19)
(-6.74358e-19 -7.40149e-19 1.04016e-19)
(-1.11845e-18 -3.81389e-19 3.80187e-19)
(-1.63142e-18 -9.08213e-19 9.79575e-19)
(-1.11721e-18 -1.01729e-18 2.08032e-19)
(-5.39065e-19 -1.72701e-18 7.15562e-19)
(2.16295e-19 -5.08643e-19 5.07531e-19)
(2.61927e-19 -4.93432e-19 3.57781e-19)
(-2.61927e-19 -9.86865e-19 0)
(-9.86865e-19 -4.78222e-19 2.53765e-19)
(-6.94516e-19 -2.46716e-19 3.57781e-19)
(6.5791e-20 -2.16295e-19 5.65813e-19)
(9.25043e-20 -4.93432e-19 9.79575e-19)
(-2.65736e-18 0 1.4036e-18)
(-1.47906e-18 1.15134e-19 3.57781e-19)
(-4.63011e-19 -6.5791e-20 5.65813e-19)
(4.63011e-19 2.61927e-19 5.20079e-19)
(-3.04217e-20 0 3.57781e-19)
(-2.46716e-19 -6.5791e-20 3.57781e-19)
(-2.46716e-19 4.42852e-19 3.57781e-19)
(-7.09727e-19 9.21074e-19 4.16063e-19)
(-1.03621e-18 -5.73197e-19 1.25483e-20)
(-2.14439e-18 -4.93432e-19 3.80187e-19)
(-1.45801e-18 0 9.88621e-19)
(-1.49156e-18 1.02594e-18 4.24027e-19)
(-1.36825e-18 1.11845e-18 8.91895e-19)
(-3.81389e-19 1.21095e-18 9.79575e-19)
(0 0 4.67868e-19)
(4.93432e-19 1.11845e-18 9.79575e-19)
(-4.93432e-19 1.11845e-18 -1.31521e-19)
(-2.96059e-18 1.11845e-18 -6.43228e-19)
(-1.97373e-18 -2.14439e-18 -1.31521e-19)
(0 0 -5.01845e-20)
(-2.79714e-18 -1.31378e-18 -1.01127e-17)
(-1.70279e-18 0 -3.81745e-18)
(-1.87938e-18 -1.9603e-19 -2.36063e-18)
(-1.95205e-18 -6.53432e-20 -9.06779e-19)
(-1.26992e-18 -9.79537e-19 4.1678e-20)
(-1.2916e-18 -9.14193e-19 4.85264e-19)
(-1.2916e-18 -1.11022e-18 1.3298e-19)
(-1.88701e-19 0 3.30819e-19)
(1.0691e-18 -1.11022e-18 8.46685e-19)
(2.14024e-18 -1.80823e-18 7.01193e-19)
(-1.30625e-18 -1.73913e-18 -3.96262e-18)
(-1.24814e-18 -1.16105e-18 -1.98408e-18)
(-1.4803e-18 -9.90563e-19 -1.21596e-18)
(-1.4803e-18 -9.39741e-19 -8.36558e-19)
(-1.02313e-18 -8.74363e-19 -1.03458e-19)
(-7.40149e-19 -8.12684e-19 7.66406e-20)
(-4.57165e-19 -1.09937e-18 1.46782e-19)
(-1.74181e-19 -7.40149e-19 4.35568e-19)
(3.33807e-19 -6.7847e-19 4.87514e-19)
(1.30625e-18 -2.1261e-18 9.33815e-20)
(-2.35113e-18 -2.53983e-18 -1.44472e-18)
(-1.40776e-18 -1.79239e-18 -8.17239e-19)
(-1.23358e-18 -1.61821e-18 -2.39667e-19)
(-1.0594e-18 -8.78061e-19 1.35636e-19)
(-8.12684e-19 -9.86865e-19 6.90183e-20)
(-9.14329e-19 -9.50597e-19 1.88852e-19)
(-7.40149e-19 -7.40149e-19 4.99792e-19)
(2.46716e-19 -5.297e-19 4.71836e-19)
(6.42202e-19 3.84629e-19 6.35993e-19)
(1.9603e-19 -1.4803e-18 1.22874e-19)
(-1.24091e-18 -2.16243e-18 2.75239e-19)
(-1.04854e-18 -9.50597e-19 4.6591e-19)
(-5.65968e-19 -7.03881e-19 2.88212e-19)
(-6.02236e-19 -7.03881e-19 1.91679e-19)
(-8.48952e-19 -7.40149e-19 3.08686e-19)
(-2.46716e-19 -2.82984e-19 1.88852e-19)
(-5.297e-19 -7.25356e-20 1.7506e-20)
(2.10448e-19 4.57165e-19 3.10466e-20)
(3.08395e-19 -1.81339e-19 1.19834e-19)
(-1.11022e-18 -9.86865e-19 3.40098e-19)
(-6.53432e-20 -1.87938e-18 1.03954e-18)
(-5.18844e-19 -1.5891e-18 4.86383e-19)
(-1.23358e-18 -7.76416e-19 3.55403e-19)
(-8.48952e-19 -8.48952e-19 3.60058e-19)
(1.01645e-19 -2.82984e-19 1.98998e-20)
(2.46716e-19 -2.46716e-19 2.67189e-19)
(-6.2972e-34 -7.40149e-19 -1.25752e-19)
(-3.5552e-19 -9.86865e-19 3.90547e-19)
(-8.01828e-19 -1.55283e-18 2.85958e-19)
(-1.24091e-18 -1.14537e-18 6.6081e-19)
(-1.11022e-18 -1.57465e-18 1.08025e-18)
(-4.31753e-19 -2.01e-18 6.16791e-19)
(-3.19252e-19 -1.72701e-18 5.69376e-19)
(-3.5552e-19 -1.02313e-18 3.41429e-19)
(-4.93432e-19 -6.67613e-19 -7.77641e-20)
(-7.03881e-19 -8.78061e-19 -8.18618e-20)
(-5.297e-19 -5.297e-19 4.14963e-20)
(-1.08803e-19 -1.23358e-18 -1.49626e-19)
(1.74181e-19 -1.16105e-18 3.72475e-19)
(1.93668e-35 -6.51939e-19 6.20101e-19)
(-2.1551e-18 -9.86865e-19 1.16263e-18)
(-8.01828e-19 -1.0594e-18 4.53067e-19)
(-2.46716e-19 -1.0594e-18 6.05644e-19)
(2.10448e-19 -7.76416e-19 8.62817e-19)
(-5.89693e-34 -7.40149e-19 2.22029e-19)
(-3.5552e-19 -7.40149e-19 3.89277e-19)
(-3.5552e-19 2.10448e-19 0)
(-9.86865e-19 -4.93432e-19 2.99359e-19)
(-4.4261e-19 -4.20897e-19 5.42551e-19)
(1.30686e-19 -1.88701e-19 6.69948e-19)
(-2.08976e-18 2.83052e-19 1.31686e-18)
(-8.12684e-19 -3.5552e-19 5.90539e-19)
(-3.62678e-20 -3.91787e-19 5.84621e-19)
(-3.62678e-20 -1.81339e-19 1.99302e-19)
(-4.57165e-19 -1.08803e-19 1.28587e-19)
(0 -3.5552e-19 5.34929e-19)
(-2.82984e-19 0 1.19834e-19)
(-7.40149e-19 6.31345e-19 4.15668e-19)
(4.31753e-19 1.74181e-19 3.90547e-19)
(1.11022e-18 -9.86865e-19 7.02488e-19)
(-2.1551e-18 2.7094e-19 4.03987e-19)
(-1.33153e-18 -6.16791e-20 3.74172e-19)
(-3.19252e-19 1.48769e-19 2.67189e-19)
(4.93432e-19 4.93432e-19 3.92421e-20)
(-1.74181e-19 0 5.22847e-21)
(6.87975e-34 8.27239e-19 1.28587e-19)
(6.31345e-19 5.08225e-20 5.22847e-21)
(-5.65968e-19 6.67613e-19 -1.736e-19)
(-1.13563e-18 -2.57573e-19 2.52642e-19)
(-1.11022e-18 -1.2916e-18 6.68979e-19)
(-2.30268e-18 -1.15134e-18 4.44879e-19)
(-7.28037e-19 -6.53432e-20 6.89333e-19)
(5.87783e-19 1.11022e-18 4.14094e-19)
(-3.79088e-34 2.08976e-18 -3.86297e-20)
(5.05451e-34 0 -2.9492e-20)
(1.88701e-19 2.22045e-18 2.09056e-19)
(-7.98164e-19 1.30686e-19 -3.07779e-19)
(-1.4803e-18 -1.17557e-18 -5.19255e-20)
(-9.86865e-19 -1.11022e-18 6.78116e-19)
(0 0 4.20149e-19)
(0 2.30268e-18 -2.74593e-18)
(-4.93432e-19 1.11022e-18 -1.38891e-18)
(-4.93432e-19 0 -1.02029e-18)
(-4.93432e-19 -4.31541e-19 -9.33815e-20)
(4.4227e-34 -4.31541e-19 5.24863e-19)
(4.0102e-19 -1.54176e-18 6.80195e-19)
(-2.77237e-19 -1.11022e-18 8.3353e-19)
(2.90634e-33 -2.47141e-19 8.04038e-19)
(-2.98434e-19 -2.22045e-18 6.18244e-19)
(-1.35312e-18 -1.15134e-18 2.40019e-19)
(-1.11022e-18 2.03472e-20 -1.57465e-18)
(-1.41862e-18 -2.19469e-19 -1.31954e-18)
(-1.52476e-18 -1.5779e-19 -5.79392e-19)
(-5.37896e-19 -1.23358e-19 -2.0522e-19)
(0 -1.67821e-19 3.63009e-19)
(0 -1.09301e-18 6.16791e-19)
(0 -7.67396e-19 7.33084e-19)
(-4.93432e-19 -7.91796e-19 6.58287e-19)
(-3.25611e-19 -8.63507e-19 8.16076e-19)
(4.31541e-19 -9.04626e-19 6.46767e-19)
(-1.11022e-18 -1.01824e-18 -4.33479e-19)
(-9.25186e-19 -1.01126e-18 -1.11626e-20)
(-8.29075e-19 -4.04506e-19 1.12195e-19)
(-3.80106e-19 -4.48969e-19 4.90465e-19)
(-2.9118e-19 -4.93432e-19 2.88212e-19)
(-8.89267e-20 -9.86865e-19 6.20888e-19)
(-4.48969e-19 -1.12025e-18 5.02759e-19)
(-4.04506e-19 -9.86865e-19 1.11022e-18)
(-6.16791e-20 0 9.39434e-19)
(-6.78682e-19 -4.93432e-19 8.93483e-19)
(-1.11022e-18 9.24123e-20 1.04682e-18)
(-8.1186e-19 -6.95685e-19 8.52344e-19)
(-7.15749e-19 -7.40149e-19 4.86368e-19)
(-6.26822e-19 -7.84612e-19 1.24489e-19)
(-7.84612e-19 -9.86865e-19 3.74172e-19)
(-6.26822e-19 -4.93432e-19 8.67605e-19)
(-2.46716e-19 -1.23358e-18 5.37896e-20)
(3.80106e-19 -4.44633e-20 3.70074e-19)
(2.29501e-19 -4.93432e-19 -4.85611e-20)
(-6.78682e-19 -5.85845e-19 4.60973e-19)
(-2.22045e-18 -6.78257e-19 8.63022e-19)
(-1.4014e-18 -6.26822e-19 4.07473e-19)
(-6.71286e-19 -3.35643e-19 5.34929e-19)
(-6.26822e-19 -7.40149e-19 2.51945e-19)
(-4.93432e-19 -7.40149e-19 4.9753e-19)
(-3.35643e-19 -7.40149e-19 2.09318e-19)
(2.46716e-19 -1.10019e-18 -1.11065e-19)
(8.89267e-20 -5.82359e-19 1.23358e-19)
(-9.25186e-19 -8.29075e-19 2.87082e-19)
(-1.11022e-18 -2.77524e-19 8.01071e-19)
(-4.31541e-19 -1.57271e-18 9.54406e-19)
(-5.03464e-19 -1.36697e-18 5.68229e-19)
(-8.29075e-19 -7.40149e-19 8.29925e-20)
(-1.03133e-18 -8.29075e-19 -1.23358e-19)
(-1.03133e-18 -5.82359e-19 -2.46716e-19)
(-4.93432e-19 -7.40149e-19 4.14963e-20)
(4.04506e-19 -6.51222e-19 2.39651e-19)
(4.04506e-19 -9.86865e-19 3.29709e-19)
(-2.98645e-36 -7.40149e-19 5.04595e-19)
(1.78284e-35 3.08321e-19 4.3251e-19)
(-8.63082e-19 -1.29547e-18 5.22865e-19)
(-4.93432e-19 -1.18912e-18 4.41904e-19)
(1.13326e-19 -9.86865e-19 7.70482e-19)
(-2.22317e-19 -8.73539e-19 8.41232e-20)
(-6.51222e-19 -3.35643e-19 -3.60748e-19)
(-1.5779e-19 4.93432e-19 2.47847e-19)
(4.93432e-19 0 -4.85611e-20)
(2.46716e-19 -8.97938e-19 6.16791e-19)
(2.81148e-19 -8.97938e-19 8.63507e-19)
(1.35736e-18 -4.93432e-19 9.25943e-19)
(-8.63082e-19 -9.86865e-19 1.10574e-18)
(-7.15749e-19 -4.93432e-19 4.69977e-19)
(-5.13496e-19 -6.26822e-19 4.07473e-19)
(-1.3339e-19 -1.14465e-18 -1.15163e-19)
(3.35643e-19 -4.93432e-19 -2.38521e-19)
(8.89267e-20 -8.89267e-20 3.63009e-19)
(-4.93432e-19 -8.89267e-20 -4.85611e-20)
(-2.46716e-19 -3.80106e-19 6.91588e-19)
(5.27864e-19 -8.89267e-20 4.44871e-19)
(1.35736e-18 -8.0204e-19 2.78147e-19)
(2.47141e-19 -1.33107e-19 -5.88812e-19)
(-4.41785e-19 -4.44633e-20 -5.26589e-20)
(-5.37896e-19 -5.37896e-19 2.46716e-19)
(1.5779e-19 -6.51222e-19 4.03656e-20)
(1.5779e-19 -1.0213e-18 -4.1044e-19)
(0 -1.50606e-19 -1.63724e-19)
(2.02253e-19 3.42827e-19 -1.63724e-19)
(2.46716e-19 9.59617e-19 -6.16791e-19)
(-4.83401e-19 3.08395e-19 2.46716e-19)
(-1.35736e-18 -3.08608e-19 1.04682e-18)
(-4.03565e-19 4.03565e-19 -5.0013e-19)
(-4.21367e-19 8.63082e-19 3.37131e-19)
(-7.70669e-19 0 -1.85794e-19)
(-4.93432e-19 0 -1.85794e-19)
(8.0204e-19 -1.35736e-18 4.62971e-19)
(8.0204e-19 1.11022e-18 -5.53386e-19)
(4.93432e-19 1.11022e-18 -4.93432e-19)
(1.84825e-19 1.54176e-18 -6.31814e-35)
(-7.19802e-19 -2.47141e-19 1.04682e-18)
(-1.15134e-18 0 1.67631e-18)
(9.69571e-19 2.30268e-18 6.55961e-19)
(8.39708e-19 -1.47382e-18 -1.55333e-19)
(6.49182e-20 -1.47382e-18 9.13836e-20)
(-4.28514e-19 0 5.81849e-19)
(-1.49339e-19 1.47382e-18 6.44769e-19)
(-2.14257e-19 5.45394e-19 3.64625e-19)
(-3.44094e-19 -5.64829e-19 2.7421e-19)
(-7.72608e-19 -1.11022e-18 -3.75524e-19)
(-9.04626e-19 3.63596e-19 -3.14602e-19)
(-1.15134e-18 1.15134e-18 -3.69649e-19)
(-1.11022e-18 6.0813e-19 -3.42096e-19)
(-1.85037e-19 -3.26436e-19 -8.59596e-20)
(7.40149e-19 -5.73152e-19 6.54189e-19)
(6.34831e-19 -2.46716e-19 5.60034e-19)
(4.93432e-19 -6.16791e-20 5.01628e-19)
(2.46716e-19 -4.75392e-19 4.36676e-19)
(-2.46716e-19 -8.54487e-19 8.19554e-21)
(-2.43248e-33 -8.72527e-19 1.8996e-19)
(2.30963e-33 -1.05318e-19 2.31456e-19)
(-3.63596e-19 -8.22387e-20 6.44769e-19)
(1.81798e-19 -3.63596e-19 2.44718e-19)
(7.06992e-20 1.57977e-19 3.58912e-19)
(0 -6.8749e-19 2.35554e-19)
(0 -6.8749e-19 5.30831e-19)
(2.99375e-19 -8.28888e-19 4.93432e-19)
(-1.47423e-33 -6.8749e-19 6.12693e-19)
(-2.46716e-19 -1.12826e-18 2.61977e-19)
(3.88115e-19 -1.23358e-18 5.93335e-19)
(1.94057e-19 -1.23358e-18 -4.85611e-20)
(-3.63596e-19 -1.05178e-18 7.7061e-19)
(-9.28425e-19 -6.42771e-19 8.59026e-19)
(-7.13088e-19 -5.82172e-19 7.0553e-19)
(-3.52034e-19 -8.28888e-19 7.24888e-19)
(2.46716e-19 -9.34206e-19 6.50091e-19)
(4.93432e-19 -6.8749e-19 6.12693e-19)
(-5.46091e-19 -1.23358e-18 8.26108e-19)
(-1.28624e-18 -1.18092e-18 4.04693e-19)
(-3.52034e-19 -7.92808e-19 5.60034e-19)
(1.41398e-19 -1.12826e-18 1.98155e-19)
(0 -5.58351e-19 5.84816e-19)
(-9.28425e-19 -8.37526e-19 2.41751e-19)
(-3.61054e-19 -5.9875e-19 5.07375e-19)
(-1.05318e-19 -9.86865e-19 8.0675e-19)
(3.88115e-19 -1.23358e-18 3.65977e-19)
(2.46716e-19 -1.53296e-18 8.59409e-19)
(-2.46716e-19 -2.02639e-18 7.36051e-19)
(-5.26589e-20 -1.3389e-18 6.61254e-19)
(-5.26589e-20 -3.52034e-19 1.8996e-19)
(1.41398e-19 -8.87396e-20 7.40149e-19)
(3.63596e-19 -2.82486e-19 9.26912e-19)
(-1.11022e-18 -1.67505e-18 9.13836e-20)
(-6.7847e-19 -5.10011e-19 1.98155e-19)
(-7.40149e-19 -1.14484e-18 -1.23358e-19)
(-2.99375e-19 -6.51409e-19 2.80017e-19)
(1.94057e-19 -1.77967e-18 5.8349e-19)
(1.41398e-19 -1.28624e-18 4.93432e-19)
(3.88115e-19 -1.14484e-18 7.48344e-19)
(4.04693e-19 -7.40149e-19 3.9353e-19)
(2.28676e-19 -2.46716e-19 1.03133e-18)
(1.81798e-19 -2.82486e-19 9.25943e-19)
(0 -1.33096e-18 -3.41126e-19)
(-1.41398e-19 -6.51409e-19 -1.34521e-19)
(-2.46716e-19 -2.99375e-19 2.35554e-19)
(-7.40149e-19 -5.26589e-20 -3.70074e-19)
(-1.41398e-19 -2.46716e-19 3.85335e-19)
(6.34831e-19 -3.52034e-19 6.16791e-19)
(7.40149e-19 -4.93432e-19 8.38402e-19)
(5.9875e-19 -7.40149e-19 1.13368e-18)
(0 -4.04693e-19 1.07692e-18)
(0 -8.37526e-19 1.17266e-18)
(-1.11022e-18 -9.86865e-19 2.4369e-19)
(-3.26436e-19 -7.40149e-19 1.5779e-19)
(-1.41398e-19 -2.46716e-19 2.84115e-19)
(-2.46716e-19 -1.41398e-19 1.15163e-19)
(1.41398e-19 3.88115e-19 2.38521e-19)
(1.41398e-19 -1.05318e-19 1.98155e-19)
(2.46716e-19 0 7.48344e-19)
(2.46716e-19 -6.51409e-19 1.06166e-18)
(7.06992e-20 -1.05318e-19 9.9506e-19)
(1.81798e-19 -1.05178e-18 7.12655e-19)
(0 -5.10753e-19 9.43507e-20)
(3.52034e-19 -6.34831e-19 1.22933e-20)
(3.52034e-19 -5.37071e-19 3.13318e-19)
(-1.05318e-19 1.41398e-19 6.83392e-19)
(-1.05318e-19 1.14338e-19 6.16791e-19)
(4.93432e-19 4.36387e-20 6.73547e-19)
(6.8749e-19 0 6.16791e-19)
(4.93432e-19 6.16791e-20 4.60132e-19)
(2.99375e-19 0 2.80017e-19)
(0 -1.49339e-19 9.84867e-19)
(-1.15134e-18 1.33311e-18 -4.61385e-19)
(1.73205e-20 -3.63596e-19 9.13836e-20)
(9.21947e-19 -7.46627e-19 6.09224e-20)
(8.37526e-19 3.63596e-19 8.01071e-19)
(6.49182e-20 5.64829e-19 1.26108e-18)
(1.49339e-19 7.46627e-19 7.37182e-19)
(9.21947e-19 0 6.77228e-19)
(4.93432e-19 9.28425e-19 4.30512e-19)
(6.49182e-20 0 7.38151e-19)
(1.81771e-19 1.81771e-19 1.85749e-18)
(0 -1.15134e-18 8.75037e-19)
(0 -4.80051e-19 3.12604e-19)
(2.74941e-20 6.30172e-19 2.22189e-19)
(-4.93432e-19 -7.95137e-19 2.80145e-19)
(-1.01436e-18 6.30172e-19 1.20876e-19)
(-4.93432e-19 0 2.25291e-20)
(8.24824e-20 -4.80051e-19 -9.83465e-20)
(-4.1095e-19 -1.64965e-19 -1.32599e-18)
(-1.04185e-18 6.30172e-19 -5.85845e-19)
(-1.53558e-18 1.5349e-18 -6.09668e-19)
(6.30172e-19 -9.59614e-19 9.63486e-20)
(7.38499e-19 -1.86686e-19 7.75898e-19)
(3.71724e-19 -4.95082e-19 5.29182e-19)
(-4.93432e-19 -9.2766e-19 8.19554e-21)
(-4.93432e-19 -2.48365e-19 -1.31554e-19)
(-7.40149e-19 -3.71724e-19 -1.50912e-19)
(-2.46716e-19 -1.25832e-19 -2.25709e-19)
(8.04302e-19 -3.10869e-19 -1.80115e-19)
(-3.08395e-19 -4.34227e-19 -6.12693e-19)
(-1.90536e-18 -2.43625e-22 -5.28859e-19)
(1.11022e-18 -1.06935e-18 5.86814e-19)
(1.85037e-19 -7.40149e-19 4.05824e-19)
(-2.46716e-19 -7.40149e-19 2.17513e-19)
(0 -6.1844e-19 6.16791e-19)
(0 -4.93432e-19 5.51838e-19)
(-4.32578e-19 -8.04302e-19 9.17066e-20)
(-8.61858e-19 -3.10869e-19 5.43081e-20)
(-4.2928e-19 -2.46716e-19 2.2326e-19)
(2.45067e-19 -1.85862e-19 -2.46716e-19)
(6.30172e-19 -1.32681e-33 2.46716e-19)
(-3.15086e-19 -9.86865e-19 7.98104e-19)
(3.70899e-19 -1.23358e-18 9.34206e-19)
(4.93432e-19 -6.79294e-19 8.31855e-19)
(0 -7.40149e-19 1.02017e-18)
(-1.85862e-19 -2.46716e-19 7.73449e-19)
(-3.10869e-19 -4.93432e-19 6.45994e-19)
(6.4153e-20 -6.08544e-20 7.86261e-19)
(6.82593e-19 0 7.48344e-19)
(4.93432e-19 3.68425e-19 4.93432e-19)
(0 4.93432e-19 4.93432e-19)
(0 -4.93432e-19 8.91486e-19)
(6.08544e-20 -9.2601e-19 9.63409e-19)
(-2.3342e-34 -1.41944e-18 7.71001e-19)
(4.32578e-19 -1.23358e-18 7.08497e-19)
(4.93432e-19 -9.2601e-19 7.73449e-19)
(0 -8.01003e-19 6.50091e-19)
(-1.21709e-19 3.10869e-19 7.73449e-19)
(2.31667e-33 1.82563e-19 6.24986e-19)
(5.53462e-19 3.68425e-19 9.21913e-19)
(1.11022e-18 -5.49882e-20 8.65989e-19)
(0 -4.38444e-19 2.46716e-19)
(-2.46716e-19 -8.61858e-19 4.93432e-19)
(-6.08544e-20 -1.29444e-18 3.34325e-19)
(4.93432e-19 -1.10857e-18 8.31855e-19)
(2.46716e-19 -1.17273e-18 1.22948e-18)
(9.2601e-19 -7.40149e-19 6.75196e-19)
(1.04772e-18 6.08544e-20 5.50189e-19)
(2.46716e-19 3.04272e-19 6.69449e-19)
(1.85862e-19 6.08544e-20 7.73449e-19)
(0 0 1.14317e-18)
(-1.11022e-18 -4.1095e-19 5.5932e-19)
(-8.03477e-19 -3.07571e-19 6.49522e-20)
(-3.93129e-34 -3.07571e-19 1.81764e-19)
(5.54287e-19 -6.15141e-19 2.46716e-19)
(6.15141e-19 -4.2928e-19 1.35284e-18)
(1.23358e-18 1.25007e-19 9.86865e-19)
(9.22712e-19 -9.21395e-34 1.09793e-18)
(-3.68558e-33 3.10869e-19 1.27969e-18)
(1.87511e-19 -4.93432e-19 1.07692e-18)
(7.95137e-19 -4.93432e-19 1.14317e-18)
(-4.80051e-19 -1.06935e-18 0)
(-1.86686e-19 -6.4153e-20 2.38521e-19)
(-1.21709e-19 -3.68425e-19 8.76089e-20)
(1.25007e-19 2.46716e-19 5.89237e-19)
(4.93432e-19 8.04302e-19 1.05347e-18)
(8.61858e-19 2.46716e-19 6.81743e-19)
(9.86865e-19 -1.82563e-19 1.22539e-18)
(2.46716e-19 1.8916e-19 6.16791e-19)
(-1.25007e-19 -2.43418e-19 7.61156e-19)
(0 -4.1095e-19 1.35645e-18)
(0 -1.48054e-18 9.53437e-19)
(-1.82563e-19 -7.40149e-19 7.92808e-19)
(5.57585e-19 -6.15141e-19 5.60034e-19)
(1.4803e-18 6.7847e-19 1.05347e-18)
(6.15141e-19 3.08395e-19 1.23358e-18)
(2.46716e-19 6.17615e-19 1.34874e-18)
(8.65156e-19 1.87511e-19 1.11022e-18)
(-6.08544e-20 -1.22533e-19 7.36051e-19)
(-5.54287e-19 -1.82563e-19 2.80017e-19)
(0 8.24824e-20 6.77228e-19)
(-3.83553e-19 -1.15134e-18 7.08101e-19)
(9.0487e-19 -1.42531e-18 1.14317e-18)
(2.02872e-18 0 5.5932e-19)
(9.86865e-19 1.11022e-18 3.37131e-19)
(5.20927e-19 -1.11022e-18 7.98104e-19)
(1.01436e-18 1.27519e-18 1.44784e-18)
(4.93432e-19 7.95137e-19 1.32696e-18)
(-4.93432e-19 -3.15086e-19 6.77228e-19)
(-4.93432e-19 0 6.77228e-19)
(0 0 6.23913e-19)
(4.75121e-19 -2.30268e-18 -1.37178e-19)
(3.28955e-19 -8.94758e-19 6.58874e-20)
(-2.84316e-34 -1.70673e-18 2.19222e-19)
(-4.77807e-19 -1.11022e-18 -5.23894e-19)
(-4.77807e-19 0 -4.87498e-19)
(-6.52701e-19 0 -4.03018e-19)
(-8.27596e-19 0 -1.53335e-19)
(-3.34164e-19 0 -7.67643e-19)
(-2.41508e-19 0 -2.74941e-20)
(-6.76221e-19 0 -2.46716e-19)
(5.13717e-19 -8.22387e-19 -2.80145e-19)
(1.99779e-19 -5.94678e-19 1.11065e-19)
(3.95663e-20 -5.55112e-19 1.61275e-19)
(-9.85336e-20 -1.85037e-19 -3.53165e-19)
(2.86283e-19 4.93432e-19 -4.35027e-19)
(-6.905e-20 -4.24382e-19 -2.17513e-19)
(-6.71099e-19 -4.24382e-19 6.25037e-20)
(-1.77666e-19 0 -1.71401e-19)
(-3.15766e-19 0 -4.4732e-19)
(-8.1197e-19 -1.56258e-20 -9.02385e-19)
(-5.96506e-19 0 1.47401e-19)
(1.23358e-19 3.55333e-19 -8.5441e-20)
(7.79715e-19 6.41615e-19 -7.72455e-20)
(2.86283e-19 2.46716e-19 -4.80425e-20)
(-3.84816e-19 6.31532e-19 1.81764e-19)
(-7.40149e-19 -3.95663e-20 -3.9847e-20)
(6.87975e-34 -1.77666e-19 1.60757e-19)
(4.93432e-19 1.381e-19 2.46716e-19)
(-2.31974e-19 2.46716e-19 2.46716e-19)
(-5.96506e-19 6.52701e-19 2.40782e-19)
(1.11022e-18 -4.93432e-19 2.43749e-19)
(7.18036e-19 2.86283e-19 1.1926e-19)
(4.24382e-19 -2.0715e-19 -1.15163e-19)
(1.381e-19 -8.78249e-19 4.20285e-19)
(0 -1.08616e-19 4.20285e-19)
(-6.31532e-19 -6.02049e-19 5.72846e-19)
(-4.93432e-19 -1.08616e-19 5.16089e-19)
(4.93432e-19 1.381e-19 4.35027e-19)
(3.55333e-19 2.46716e-19 -5.02104e-20)
(0 9.86865e-19 -4.93432e-19)
(1.40848e-18 -1.4803e-18 6.46767e-19)
(1.62924e-19 -1.72701e-18 3.44969e-19)
(-3.84816e-19 -1.72701e-18 1.35651e-19)
(6.31532e-19 -1.37168e-18 3.05122e-19)
(1.381e-19 -7.40149e-19 6.16791e-19)
(-4.93432e-19 -1.6184e-18 4.20285e-19)
(4.93432e-19 -8.48765e-19 5.43643e-19)
(8.48765e-19 -2.46716e-19 4.85237e-19)
(5.55112e-19 -8.48765e-19 1.31554e-19)
(5.13717e-19 1.30496e-19 2.46716e-19)
(0 -1.59269e-19 4.93432e-19)
(2.86283e-19 -1.72701e-18 3.70074e-19)
(5.32999e-19 -1.4803e-18 2.84115e-19)
(8.78249e-19 -9.86865e-19 4.2848e-19)
(2.46716e-19 -9.86865e-19 6.96204e-19)
(-4.93432e-19 -4.93432e-19 4.53585e-19)
(3.84816e-19 1.08616e-19 1.25526e-19)
(4.93432e-19 1.08616e-19 3.51235e-19)
(7.4752e-19 -7.79715e-19 1.98674e-19)
(1.92219e-18 -6.81474e-19 3.94117e-19)
(-2.22045e-18 5.09058e-19 5.53386e-19)
(-1.00161e-18 -4.53866e-19 2.38521e-19)
(3.55333e-19 -3.15766e-19 2.54912e-19)
(1.12496e-18 1.77666e-19 4.18117e-19)
(6.31532e-19 3.55333e-19 8.19562e-19)
(6.02049e-19 3.84816e-19 3.22032e-19)
(6.02049e-19 8.48765e-19 -1.0644e-20)
(-3.95663e-20 3.55333e-19 9.79723e-20)
(-3.95663e-20 3.95663e-20 3.97347e-19)
(0 1.56258e-20 6.31932e-19)
(-1.11022e-18 -8.1197e-19 -2.46716e-19)
(-2.54087e-19 2.7519e-33 5.84059e-20)
(9.17815e-19 4.93432e-19 2.33904e-19)
(1.30263e-18 1.23358e-18 1.75498e-19)
(2.0715e-19 1.3422e-18 4.93432e-19)
(2.46716e-19 6.02049e-19 3.61879e-19)
(1.08616e-19 2.46716e-19 1.81764e-19)
(-8.09199e-19 1.77666e-19 -9.82529e-20)
(4.31753e-19 -2.94836e-20 1.37819e-19)
(1.92219e-18 3.49789e-19 6.6536e-19)
(5.13717e-19 -8.32805e-19 1.01733e-18)
(5.55112e-19 4.53866e-19 9.90963e-19)
(1.58891e-18 8.37918e-20 9.84697e-19)
(1.72701e-18 -1.85037e-19 5.6658e-19)
(2.46716e-19 -3.70074e-19 1.96506e-19)
(2.46716e-19 7.87086e-19 5.01628e-19)
(4.24382e-19 0 2.46716e-19)
(-5.62482e-19 1.77666e-19 2.9203e-20)
(-6.16791e-20 4.31753e-19 0)
(1.11022e-18 -5.70463e-19 -2.5265e-19)
(2.97891e-18 -9.50242e-19 1.65622e-18)
(9.04626e-19 8.1197e-19 1.6277e-18)
(8.43222e-19 -5.96506e-19 1.29353e-18)
(1.16176e-18 -1.92219e-18 3.46032e-19)
(1.14613e-18 -2.22045e-18 7.40149e-19)
(9.86865e-19 1.11022e-18 6.58635e-19)
(-1.59269e-19 0 6.55668e-19)
(-1.59269e-19 0 2.96707e-21)
(-4.11194e-19 1.11022e-18 2.49683e-19)
(-1.15134e-18 -1.15134e-18 2.46716e-19)
(1.15134e-18 -1.93778e-18 5.4854e-19)
(4.11194e-19 -2.22045e-18 4.23295e-20)
(-6.92064e-19 -3.97263e-19 -2.96707e-21)
(-9.86865e-19 -1.98631e-19 -5.95715e-19)
(1.47401e-19 7.1296e-19 -5.29828e-19)
(2.94801e-19 1.11022e-18 -9.86865e-19)
(-4.93432e-19 0 -7.79511e-19)
(-3.46032e-19 -3.97263e-19 -7.43116e-19)
(-4.11194e-19 7.1296e-19 -2.49683e-19)
(-1.15134e-18 3.64906e-19 -1.11828e-19)
(-7.1296e-19 -6.92064e-19 2.26125e-19)
(5.55112e-19 -1.51143e-18 4.84718e-19)
(2.61696e-19 -8.9464e-19 -2.44548e-19)
(-4.93432e-19 -7.72455e-20 -4.18117e-19)
(7.40149e-19 7.70695e-19 -5.95783e-19)
(2.46716e-19 1.85037e-19 -8.63507e-19)
(-4.01207e-19 -3.38941e-19 -5.78874e-19)
(1.49797e-20 -1.69471e-19 -7.88191e-19)
(-4.31753e-19 2.62283e-19 -4.60132e-19)
(-1.11022e-18 1.81554e-19 -4.57037e-19)
(-1.11022e-18 -2.94801e-19 2.80145e-19)
(6.16791e-20 -7.40149e-19 6.16272e-19)
(9.09619e-19 -5.85658e-19 3.33007e-20)
(7.40149e-19 3.23962e-19 -6.85841e-19)
(4.93432e-19 4.93432e-19 -5.35447e-19)
(-9.22252e-20 -1.69471e-19 -4.68327e-19)
(3.23962e-19 -1.17939e-33 3.82886e-19)
(5.85658e-19 -3.53921e-19 -1.23358e-19)
(-4.31753e-19 -3.53921e-19 -2.25709e-19)
(-1.11022e-18 5.12307e-20 -5.93415e-21)
(0 -2.94801e-19 2.97768e-19)
(4.93432e-19 -1.49797e-20 4.09777e-21)
(1.32581e-18 -2.61696e-19 -5.01628e-19)
(8.32374e-19 7.72455e-20 -6.89938e-19)
(0 -9.22252e-20 -3.19864e-19)
(0 7.72455e-20 -1.75498e-19)
(-3.38941e-19 3.38941e-19 0)
(-3.38941e-19 -1.13024e-33 1.65373e-19)
(-1.54491e-19 -3.38941e-19 -3.57262e-19)
(-3.97263e-19 -2.94801e-19 -7.40149e-19)
(-9.11592e-19 -6.40833e-19 2.0142e-19)
(-3.54508e-19 -1.69471e-19 -1.87792e-19)
(1.00184e-18 -2.46716e-19 6.905e-20)
(1.40305e-18 -2.46716e-19 -3.70074e-19)
(4.93432e-19 -4.93432e-19 4.20148e-20)
(9.22252e-20 -3.23962e-19 -1.01255e-20)
(9.22204e-36 -4.78453e-19 3.17934e-19)
(-5.85658e-19 1.49797e-20 -1.75498e-19)
(-5.85658e-19 2.61696e-19 -2.54912e-19)
(4.25201e-35 1.45733e-19 -1.92697e-19)
(0 -1.98631e-19 4.08773e-19)
(4.16187e-19 -2.31737e-19 3.30746e-19)
(1.24856e-18 -3.23962e-19 3.19864e-19)
(8.32374e-19 -7.55128e-19 -3.49067e-19)
(-7.72455e-20 -8.9464e-19 -1.96506e-19)
(1.49797e-20 -5.70678e-19 6.712e-20)
(2.46716e-19 -3.23962e-19 -2.02534e-19)
(6.47923e-19 -2.31737e-19 3.22032e-19)
(5.70678e-19 1.07205e-19 -4.80425e-20)
(1.98631e-19 8.82736e-19 -1.0525e-19)
(-1.11022e-18 -5.12307e-20 -4.82636e-20)
(-5.23979e-19 1.49797e-20 3.17934e-19)
(2.31737e-19 -1.69471e-19 3.82886e-19)
(8.32374e-19 -7.55128e-19 1.32072e-19)
(6.77883e-19 3.93129e-34 1.73568e-19)
(6.62903e-19 7.72455e-20 1.98674e-19)
(5.85658e-19 7.25169e-19 -5.62381e-20)
(5.85658e-19 4.93432e-19 -4.80425e-20)
(4.93432e-19 3.38941e-19 -2.19443e-19)
(0 4.42202e-19 -4.57216e-19)
(0 1.98631e-19 1.92697e-19)
(4.78453e-19 4.78453e-19 3.2806e-19)
(4.78453e-19 9.71885e-19 4.77041e-19)
(7.55128e-19 6.62903e-19 -1.63911e-20)
(7.55128e-19 8.9464e-19 -1.23358e-19)
(4.93432e-19 2.31737e-19 2.96927e-19)
(4.16187e-19 5.70678e-19 -2.25709e-19)
(2.61696e-19 8.9464e-19 -5.62381e-20)
(3.38941e-19 -9.22252e-20 -1.96506e-19)
(0 -4.93432e-19 -6.95031e-19)
(1.98631e-19 6.92064e-19 1.04682e-18)
(4.78453e-19 6.7847e-19 8.59409e-19)
(6.62903e-19 1.1252e-18 8.64025e-19)
(5.08412e-19 1.09466e-18 -8.19554e-21)
(-2.46716e-19 6.7847e-19 -2.33904e-19)
(-1.54491e-19 8.48527e-19 4.85237e-19)
(7.55128e-19 5.86244e-19 2.10074e-20)
(-7.72455e-20 5.70678e-19 1.65373e-19)
(-6.47923e-19 -7.66588e-20 1.65373e-19)
(-3.97263e-19 1.98631e-19 -2.5265e-19)
(1.51625e-18 0 1.45724e-18)
(1.03495e-18 5.14329e-19 1.17066e-18)
(1.1855e-18 1.22729e-18 1.17363e-18)
(1.4803e-18 1.11022e-18 3.09637e-19)
(8.39464e-19 7.1296e-19 2.46716e-19)
(1.98631e-19 2.41908e-18 4.05985e-19)
(-5.12307e-20 1.50749e-18 2.10321e-19)
(-1.98631e-19 1.98631e-19 -3.93624e-20)
(6.51618e-20 1.30885e-18 2.07354e-19)
(1.82453e-19 1.93778e-18 4.70373e-19)
(-1.15134e-18 -1.15134e-18 3.89915e-19)
(-5.29281e-19 -4.14708e-19 8.0544e-20)
(-2.36175e-19 -2.80808e-19 -3.7946e-19)
(-6.1152e-19 -1.11022e-18 -1.53335e-19)
(-4.93432e-19 -1.11022e-18 7.16428e-20)
(4.14708e-19 0 -1.32744e-19)
(4.93432e-19 0 -2.89046e-19)
(5.72157e-19 -2.80808e-19 2.46716e-19)
(5.32795e-19 0 8.15906e-19)
(1.10215e-19 0 8.75037e-19)
(-4.14708e-19 -4.89919e-19 8.2366e-19)
(-4.27205e-19 -1.61275e-19 1.00429e-18)
(-1.04655e-19 -1.85037e-19 -4.03894e-19)
(-8.5441e-20 -5.93029e-19 -1.74087e-19)
(2.46716e-19 -1.7543e-19 -1.1926e-19)
(5.69267e-19 0 -4.59613e-19)
(7.58341e-20 1.70882e-19 -3.07052e-19)
(4.17598e-19 1.4712e-19 -3.38193e-20)
(6.88077e-19 0 3.1115e-19)
(6.95515e-19 -4.93432e-19 5.35762e-19)
(-1.339e-19 -1.96812e-19 5.1699e-19)
(-3.93836e-19 -5.03039e-19 1.28162e-18)
(-2.6593e-19 -4.93432e-19 6.98134e-19)
(2.46716e-19 -4.07991e-19 -3.01543e-19)
(4.07991e-19 5.78874e-19 -1.31554e-19)
(4.83826e-19 4.93432e-19 7.26292e-20)
(8.5441e-20 2.56323e-19 4.16187e-19)
(-1.81822e-33 2.56323e-19 2.63626e-19)
(1.57251e-33 -4.93432e-19 -1.02351e-19)
(-4.14708e-19 -4.93432e-19 4.93432e-19)
(-1.339e-19 -1.5745e-19 -2.17387e-20)
(-3.08395e-19 -8.44804e-19 7.6987e-19)
(-2.56323e-19 -4.93432e-19 4.20148e-20)
(7.40149e-19 -2.46716e-19 -3.70074e-19)
(9.01424e-19 3.2255e-19 -3.53165e-19)
(4.93432e-19 5.69267e-19 -2.42618e-19)
(8.5441e-20 4.93432e-19 8.95388e-20)
(-3.32157e-19 1.61275e-19 4.12089e-19)
(1.85037e-19 -1.61275e-19 4.33097e-19)
(6.95515e-19 0 4.93432e-19)
(0 -6.1152e-19 -1.75073e-19)
(2.56323e-19 -3.41764e-19 -5.50914e-21)
(3.32157e-19 -7.58341e-20 6.71617e-19)
(1.0627e-18 -8.5441e-20 -1.06448e-19)
(1.22397e-18 -4.93432e-19 -1.87792e-19)
(4.07991e-19 7.58341e-20 -7.27855e-19)
(-3.2255e-19 6.62272e-20 -3.49067e-19)
(-9.01424e-19 4.07991e-19 -5.61964e-19)
(-4.07991e-19 4.93432e-19 5.89245e-20)
(2.62337e-35 4.53681e-19 5.47452e-19)
(2.80808e-19 -7.87248e-20 1.62057e-19)
(1.1881e-19 2.46716e-19 3.30746e-19)
(-4.39045e-33 4.83826e-19 6.6752e-19)
(5.69267e-19 -8.5441e-20 4.09777e-21)
(1.30942e-18 -4.93432e-19 -1.23358e-19)
(8.06376e-19 -7.58341e-20 -2.38521e-19)
(4.17598e-19 7.58341e-20 -3.95698e-19)
(-1.51668e-19 5.69267e-19 -8.95388e-20)
(-4.93432e-19 7.30542e-19 -3.36255e-19)
(-2.17265e-35 1.2831e-18 1.76237e-20)
(-8.29415e-19 1.96812e-19 -2.89046e-19)
(-3.2255e-19 9.60691e-21 1.78185e-19)
(-4.93432e-19 4.83826e-19 4.66916e-19)
(8.5441e-20 2.46716e-19 3.13836e-19)
(1.23358e-18 4.93432e-19 4.59613e-19)
(1.22397e-18 2.56323e-19 5.99881e-19)
(8.15983e-19 5.8848e-19 8.19554e-21)
(-2.46716e-19 3.2255e-19 8.95388e-20)
(-6.02635e-19 1.0627e-18 -2.46716e-19)
(-2.80808e-19 8.29415e-19 -1.04682e-18)
(0 6.1152e-19 8.57088e-19)