# vtk DataFile Version 2.0
track0
ASCII
DATASET POLYDATA
POINTS 1720 float
-1.001 -0.05 0.0011
-1.0008 -0.05 0.0011
-1.0006 -0.05 0.0011
-1.0004 -0.05 0.0011
-1.0002 -0.05 0.0011
-1 -0.05 0.0011
-0.8 -0.05 0.0011
-0.6 -0.05 0.0011
-0.4 -0.05 0.0011
-0.2 -0.05 0.0011
0 -0.05 0.0011
0.2 -0.05 0.0011
0.4 -0.05 0.0011
0.6 -0.05 0.0011
0.8 -0.05 0.0011
1 -0.05 0.0011
1.2 -0.05 0.0011
1.4 -0.05 0.0011
1.6 -0.05 0.0011
1.8 -0.05 0.0011
2 -0.05 0.0011
2.2 -0.05 0.0011
2.4 -0.05 0.0011
2.6 -0.05 0.0011
2.8 -0.05 0.0011
3 -0.05 0.0011
3.2 -0.05 0.0011
3.4 -0.05 0.0011
3.6 -0.05 0.0011
3.8 -0.05 0.0011
4 -0.05 0.0011
4.2 -0.05 0.0011
4.4 -0.05 0.0011
4.6 -0.05 0.0011
4.8 -0.05 0.0011
5 -0.05 0.0011
5.2 -0.05 0.0011
5.4 -0.05 0.0011
5.6 -0.05 0.0011
5.8 -0.05 0.0011
6 -0.05 0.0011
6.2 -0.05 0.0011
6.4 -0.05 0.0011
6.6 -0.05 0.0011
6.8 -0.05 0.0011
7 -0.05 0.0011
7.2 -0.05 0.0011
7.4 -0.05 0.0011
7.6 -0.05 0.0011
7.8 -0.05 0.0011
8 -0.05 0.0011
8.2 -0.05 0.0011
8.4 -0.05 0.0011
8.6 -0.05 0.0011
8.8 -0.05 0.0011
9 -0.05 0.0011
9.2 -0.05 0.0011
9.4 -0.05 0.0011
9.6 -0.05 0.0011
9.8 -0.05 0.0011
10 -0.05 0.0011
10.2 -0.05 0.0011
10.4 -0.05 0.0011
10.6 -0.05 0.0011
10.8 -0.05 0.0011
11 -0.05 0.0011
11.2 -0.05 0.0011
11.4 -0.05 0.0011
11.6 -0.05 0.0011
11.8 -0.05 0.0011
12 -0.05 0.0011
12.2 -0.05 0.0011
12.4 -0.05 0.0011
12.6 -0.05 0.0011
12.8 -0.05 0.0011
13 -0.05 0.0011
13.2 -0.05 0.0011
13.4 -0.05 0.0011
13.6 -0.05 0.0011
13.8 -0.05 0.0011
14 -0.05 0.0011
14.2 -0.05 0.0011
14.4 -0.05 0.0011
14.6 -0.05 0.0011
14.8 -0.05 0.0011
15 -0.05 0.0011
-1.001 -0.05 0.0537316
-1.0008 -0.05 0.0537316
-1.0006 -0.05 0.0537316
-1.0004 -0.05 0.0537316
-1.0002 -0.05 0.0537316
-1 -0.05 0.0537316
-0.8 -0.05 0.0537316
-0.6 -0.05 0.0537316
-0.4 -0.05 0.0537316
-0.2 -0.05 0.0537316
0 -0.05 0.0537316
0.2 -0.05 0.0537316
0.4 -0.05 0.0537316
0.6 -0.05 0.0537316
0.8 -0.05 0.0537316
1 -0.05 0.0537316
1.2 -0.05 0.0537316
1.4 -0.05 0.0537316
1.6 -0.05 0.0537316
1.8 -0.05 0.0537316
2 -0.05 0.0537316
2.2 -0.05 0.0537316
2.4 -0.05 0.0537316
2.6 -0.05 0.0537316
2.8 -0.05 0.0537316
3 -0.05 0.0537316
3.2 -0.05 0.0537316
3.4 -0.05 0.0537316
3.6 -0.05 0.0537316
3.8 -0.05 0.0537316
4 -0.05 0.0537316
4.2 -0.05 0.0537316
4.4 -0.05 0.0537316
4.6 -0.05 0.0537316
4.8 -0.05 0.0537316
5 -0.05 0.0537316
5.2 -0.05 0.0537316
5.4 -0.05 0.0537316
5.6 -0.05 0.0537316
5.8 -0.05 0.0537316
6 -0.05 0.0537316
6.2 -0.05 0.0537316
6.4 -0.05 0.0537316
6.6 -0.05 0.0537316
6.8 -0.05 0.0537316
7 -0.05 0.0537316
7.2 -0.05 0.0537316
7.4 -0.05 0.0537316
7.6 -0.05 0.0537316
7.8 -0.05 0.0537316
8 -0.05 0.0537316
8.2 -0.05 0.0537316
8.4 -0.05 0.0537316
8.6 -0.05 0.0537316
8.8 -0.05 0.0537316
9 -0.05 0.0537316
9.2 -0.05 0.0537316
9.4 -0.05 0.0537316
9.6 -0.05 0.0537316
9.8 -0.05 0.0537316
10 -0.05 0.0537316
10.2 -0.05 0.0537316
10.4 -0.05 0.0537316
10.6 -0.05 0.0537316
10.8 -0.05 0.0537316
11 -0.05 0.0537316
11.2 -0.05 0.0537316
11.4 -0.05 0.0537316
11.6 -0.05 0.0537316
11.8 -0.05 0.0537316
12 -0.05 0.0537316
12.2 -0.05 0.0537316
12.4 -0.05 0.0537316
12.6 -0.05 0.0537316
12.8 -0.05 0.0537316
13 -0.05 0.0537316
13.2 -0.05 0.0537316
13.4 -0.05 0.0537316
13.6 -0.05 0.0537316
13.8 -0.05 0.0537316
14 -0.05 0.0537316
14.2 -0.05 0.0537316
14.4 -0.05 0.0537316
14.6 -0.05 0.0537316
14.8 -0.05 0.0537316
15 -0.05 0.0537316
-1.001 -0.05 0.106363
-1.0008 -0.05 0.106363
-1.0006 -0.05 0.106363
-1.0004 -0.05 0.106363
-1.0002 -0.05 0.106363
-1 -0.05 0.106363
-0.8 -0.05 0.106363
-0.6 -0.05 0.106363
-0.4 -0.05 0.106363
-0.2 -0.05 0.106363
0 -0.05 0.106363
0.2 -0.05 0.106363
0.4 -0.05 0.106363
0.6 -0.05 0.106363
0.8 -0.05 0.106363
1 -0.05 0.106363
1.2 -0.05 0.106363
1.4 -0.05 0.106363
1.6 -0.05 0.106363
1.8 -0.05 0.106363
2 -0.05 0.106363
2.2 -0.05 0.106363
2.4 -0.05 0.106363
2.6 -0.05 0.106363
2.8 -0.05 0.106363
3 -0.05 0.106363
3.2 -0.05 0.106363
3.4 -0.05 0.106363
3.6 -0.05 0.106363
3.8 -0.05 0.106363
4 -0.05 0.106363
4.2 -0.05 0.106363
4.4 -0.05 0.106363
4.6 -0.05 0.106363
4.8 -0.05 0.106363
5 -0.05 0.106363
5.2 -0.05 0.106363
5.4 -0.05 0.106363
5.6 -0.05 0.106363
5.8 -0.05 0.106363
6 -0.05 0.106363
6.2 -0.05 0.106363
6.4 -0.05 0.106363
6.6 -0.05 0.106363
6.8 -0.05 0.106363
7 -0.05 0.106363
7.2 -0.05 0.106363
7.4 -0.05 0.106363
7.6 -0.05 0.106363
7.8 -0.05 0.106363
8 -0.05 0.106363
8.2 -0.05 0.106363
8.4 -0.05 0.106363
8.6 -0.05 0.106363
8.8 -0.05 0.106363
9 -0.05 0.106363
9.2 -0.05 0.106363
9.4 -0.05 0.106363
9.6 -0.05 0.106363
9.8 -0.05 0.106363
10 -0.05 0.106363
10.2 -0.05 0.106363
10.4 -0.05 0.106363
10.6 -0.05 0.106363
10.8 -0.05 0.106363
11 -0.05 0.106363
11.2 -0.05 0.106363
11.4 -0.05 0.106363
11.6 -0.05 0.106363
11.8 -0.05 0.106363
12 -0.05 0.106363
12.2 -0.05 0.106363
12.4 -0.05 0.106363
12.6 -0.05 0.106363
12.8 -0.05 0.106363
13 -0.05 0.106363
13.2 -0.05 0.106363
13.4 -0.05 0.106363
13.6 -0.05 0.106363
13.8 -0.05 0.106363
14 -0.05 0.106363
14.2 -0.05 0.106363
14.4 -0.05 0.106363
14.6 -0.05 0.106363
14.8 -0.05 0.106363
15 -0.05 0.106363
-1.001 -0.05 0.158995
-1.0008 -0.05 0.158995
-1.0006 -0.05 0.158995
-1.0004 -0.05 0.158995
-1.0002 -0.05 0.158995
-1 -0.05 0.158995
-0.8 -0.05 0.158995
-0.6 -0.05 0.158995
-0.4 -0.05 0.158995
-0.2 -0.05 0.158995
0 -0.05 0.158995
0.2 -0.05 0.158995
0.4 -0.05 0.158995
0.6 -0.05 0.158995
0.8 -0.05 0.158995
1 -0.05 0.158995
1.2 -0.05 0.158995
1.4 -0.05 0.158995
1.6 -0.05 0.158995
1.8 -0.05 0.158995
2 -0.05 0.158995
2.2 -0.05 0.158995
2.4 -0.05 0.158995
2.6 -0.05 0.158995
2.8 -0.05 0.158995
3 -0.05 0.158995
3.2 -0.05 0.158995
3.4 -0.05 0.158995
3.6 -0.05 0.158995
3.8 -0.05 0.158995
4 -0.05 0.158995
4.2 -0.05 0.158995
4.4 -0.05 0.158995
4.6 -0.05 0.158995
4.8 -0.05 0.158995
5 -0.05 0.158995
5.2 -0.05 0.158995
5.4 -0.05 0.158995
5.6 -0.05 0.158995
5.8 -0.05 0.158995
6 -0.05 0.158995
6.2 -0.05 0.158995
6.4 -0.05 0.158995
6.6 -0.05 0.158995
6.8 -0.05 0.158995
7 -0.05 0.158995
7.2 -0.05 0.158995
7.4 -0.05 0.158995
7.6 -0.05 0.158995
7.8 -0.05 0.158995
8 -0.05 0.158995
8.2 -0.05 0.158995
8.4 -0.05 0.158995
8.6 -0.05 0.158995
8.8 -0.05 0.158995
9 -0.05 0.158995
9.2 -0.05 0.158995
9.4 -0.05 0.158995
9.6 -0.05 0.158995
9.8 -0.05 0.158995
10 -0.05 0.158995
10.2 -0.05 0.158995
10.4 -0.05 0.158995
10.6 -0.05 0.158995
10.8 -0.05 0.158995
11 -0.05 0.158995
11.2 -0.05 0.158995
11.4 -0.05 0.158995
11.6 -0.05 0.158995
11.8 -0.05 0.158995
12 -0.05 0.158995
12.2 -0.05 0.158995
12.4 -0.05 0.158995
12.6 -0.05 0.158995
12.8 -0.05 0.158995
13 -0.05 0.158995
13.2 -0.05 0.158995
13.4 -0.05 0.158995
13.6 -0.05 0.158995
13.8 -0.05 0.158995
14 -0.05 0.158995
14.2 -0.05 0.158995
14.4 -0.05 0.158995
14.6 -0.05 0.158995
14.8 -0.05 0.158995
15 -0.05 0.158995
-1.001 -0.05 0.211626
-1.0008 -0.05 0.211626
-1.0006 -0.05 0.211626
-1.0004 -0.05 0.211626
-1.0002 -0.05 0.211626
-1 -0.05 0.211626
-0.8 -0.05 0.211626
-0.6 -0.05 0.211626
-0.4 -0.05 0.211626
-0.2 -0.05 0.211626
0 -0.05 0.211626
0.2 -0.05 0.211626
0.4 -0.05 0.211626
0.6 -0.05 0.211626
0.8 -0.05 0.211626
1 -0.05 0.211626
1.2 -0.05 0.211626
1.4 -0.05 0.211626
1.6 -0.05 0.211626
1.8 -0.05 0.211626
2 -0.05 0.211626
2.2 -0.05 0.211626
2.4 -0.05 0.211626
2.6 -0.05 0.211626
2.8 -0.05 0.211626
3 -0.05 0.211626
3.2 -0.05 0.211626
3.4 -0.05 0.211626
3.6 -0.05 0.211626
3.8 -0.05 0.211626
4 -0.05 0.211626
4.2 -0.05 0.211626
4.4 -0.05 0.211626
4.6 -0.05 0.211626
4.8 -0.05 0.211626
5 -0.05 0.211626
5.2 -0.05 0.211626
5.4 -0.05 0.211626
5.6 -0.05 0.211626
5.8 -0.05 0.211626
6 -0.05 0.211626
6.2 -0.05 0.211626
6.4 -0.05 0.211626
6.6 -0.05 0.211626
6.8 -0.05 0.211626
7 -0.05 0.211626
7.2 -0.05 0.211626
7.4 -0.05 0.211626
7.6 -0.05 0.211626
7.8 -0.05 0.211626
8 -0.05 0.211626
8.2 -0.05 0.211626
8.4 -0.05 0.211626
8.6 -0.05 0.211626
8.8 -0.05 0.211626
9 -0.05 0.211626
9.2 -0.05 0.211626
9.4 -0.05 0.211626
9.6 -0.05 0.211626
9.8 -0.05 0.211626
10 -0.05 0.211626
10.2 -0.05 0.211626
10.4 -0.05 0.211626
10.6 -0.05 0.211626
10.8 -0.05 0.211626
11 -0.05 0.211626
11.2 -0.05 0.211626
11.4 -0.05 0.211626
11.6 -0.05 0.211626
11.8 -0.05 0.211626
12 -0.05 0.211626
12.2 -0.05 0.211626
12.4 -0.05 0.211626
12.6 -0.05 0.211626
12.8 -0.05 0.211626
13 -0.05 0.211626
13.2 -0.05 0.211626
13.4 -0.05 0.211626
13.6 -0.05 0.211626
13.8 -0.05 0.211626
14 -0.05 0.211626
14.2 -0.05 0.211626
14.4 -0.05 0.211626
14.6 -0.05 0.211626
14.8 -0.05 0.211626
15 -0.05 0.211626
-1.001 -0.05 0.264258
-1.0008 -0.05 0.264258
-1.0006 -0.05 0.264258
-1.0004 -0.05 0.264258
-1.0002 -0.05 0.264258
-1 -0.05 0.264258
-0.8 -0.05 0.264258
-0.6 -0.05 0.264258
-0.4 -0.05 0.264258
-0.2 -0.05 0.264258
0 -0.05 0.264258
0.2 -0.05 0.264258
0.4 -0.05 0.264258
0.6 -0.05 0.264258
0.8 -0.05 0.264258
1 -0.05 0.264258
1.2 -0.05 0.264258
1.4 -0.05 0.264258
1.6 -0.05 0.264258
1.8 -0.05 0.264258
2 -0.05 0.264258
2.2 -0.05 0.264258
2.4 -0.05 0.264258
2.6 -0.05 0.264258
2.8 -0.05 0.264258
3 -0.05 0.264258
3.2 -0.05 0.264258
3.4 -0.05 0.264258
3.6 -0.05 0.264258
3.8 -0.05 0.264258
4 -0.05 0.264258
4.2 -0.05 0.264258
4.4 -0.05 0.264258
4.6 -0.05 0.264258
4.8 -0.05 0.264258
5 -0.05 0.264258
5.2 -0.05 0.264258
5.4 -0.05 0.264258
5.6 -0.05 0.264258
5.8 -0.05 0.264258
6 -0.05 0.264258
6.2 -0.05 0.264258
6.4 -0.05 0.264258
6.6 -0.05 0.264258
6.8 -0.05 0.264258
7 -0.05 0.264258
7.2 -0.05 0.264258
7.4 -0.05 0.264258
7.6 -0.05 0.264258
7.8 -0.05 0.264258
8 -0.05 0.264258
8.2 -0.05 0.264258
8.4 -0.05 0.264258
8.6 -0.05 0.264258
8.8 -0.05 0.264258
9 -0.05 0.264258
9.2 -0.05 0.264258
9.4 -0.05 0.264258
9.6 -0.05 0.264258
9.8 -0.05 0.264258
10 -0.05 0.264258
10.2 -0.05 0.264258
10.4 -0.05 0.264258
10.6 -0.05 0.264258
10.8 -0.05 0.264258
11 -0.05 0.264258
11.2 -0.05 0.264258
11.4 -0.05 0.264258
11.6 -0.05 0.264258
11.8 -0.05 0.264258
12 -0.05 0.264258
12.2 -0.05 0.264258
12.4 -0.05 0.264258
12.6 -0.05 0.264258
12.8 -0.05 0.264258
13 -0.05 0.264258
13.2 -0.05 0.264258
13.4 -0.05 0.264258
13.6 -0.05 0.264258
13.8 -0.05 0.264258
14 -0.05 0.264258
14.2 -0.05 0.264258
14.4 -0.05 0.264258
14.6 -0.05 0.264258
14.8 -0.05 0.264258
15 -0.05 0.264258
-1.001 -0.05 0.316889
-1.0008 -0.05 0.316889
-1.0006 -0.05 0.316889
-1.0004 -0.05 0.316889
[...]
POINT_DATA 1720
 FIELD attributes 2
p 1 1720 float
-1.20879e-13 -1.20871e-13 -1.20863e-13 -1.20856e-13 -1.20848e-13 -1.2084e-13 -1.18433e-13 -1.16063e-13 -1.13693e-13 -1.11324e-13 -1.08841e-13 -1.1428e-13 -1.19735e-13 -1.2519e-13 -1.30645e-13 -1.3597e-13 -1.38459e-13 -1.40923e-13 -1.43387e-13 -1.45852e-13 -1.48236e-13 -1.40695e-13 -1.33114e-13 -1.25534e-13 -1.17954e-13 -1.10595e-13 -1.01172e-13 -9.17607e-14 -8.23494e-14 -7.29381e-14 -6.36754e-14 -6.10053e-14 -5.83618e-14 -5.57183e-14 -5.30749e-14 -5.055e-14 -5.20028e-14 -5.34539e-14 -5.4905e-14 -5.63562e-14 -5.76026e-14 -5.59389e-14 -5.42597e-14 -5.25804e-14 -5.09011e-14 -4.88687e-14 -4.69001e-14 -4.49622e-14 -4.30243e-14 -4.10865e-14 -3.90558e-14 -4.15706e-14 -4.4095e-14 -4.66194e-14 -4.91438e-14 -5.14846e-14 -5.22659e-14 -5.29997e-14 -5.37335e-14 -5.44672e-14 -5.5307e-14 -5.07163e-14 -4.60832e-14 -4.14501e-14 -3.6817e-14 -3.25296e-14 -2.57278e-14 -1.89102e-14 -1.20927e-14 -5.27512e-15 1.41108e-15 4.60457e-15 7.76301e-15 1.09215e-14 1.40799e-14 1.72697e-14 1.54534e-14 1.3612e-14 1.17706e-14 9.92922e-15 8.18215e-15 6.61225e-15 5.02902e-15 3.4458e-15 1.86257e-15 3.11436e-16
-1.21036e-13 -1.21028e-13 -1.2102e-13 -1.21012e-13 -1.21004e-13 -1.20996e-13 -1.16925e-13 -1.14555e-13 -1.12186e-13 -1.09816e-13 -1.09043e-13 -1.13719e-13 -1.19174e-13 -1.24629e-13 -1.30084e-13 -1.35716e-13 -1.39305e-13 -1.41769e-13 -1.44233e-13 -1.46697e-13 -1.47753e-13 -1.41973e-13 -1.34392e-13 -1.26812e-13 -1.19232e-13 -1.10429e-13 -1.00472e-13 -9.10607e-14 -8.16495e-14 -7.22382e-14 -6.36215e-14 -5.97708e-14 -5.71273e-14 -5.44838e-14 -5.18403e-14 -5.05183e-14 -5.2053e-14 -5.35041e-14 -5.49552e-14 -5.64064e-14 -5.76791e-14 -5.67157e-14 -5.50364e-14 -5.33572e-14 -5.16779e-14 -4.90366e-14 -4.57042e-14 -4.37663e-14 -4.18284e-14 -3.98905e-14 -3.92391e-14 -4.13074e-14 -4.38318e-14 -4.63562e-14 -4.88805e-14 -5.13241e-14 -5.42016e-14 -5.49354e-14 -5.56692e-14 -5.64029e-14 -5.48597e-14 -5.21751e-14 -4.7542e-14 -4.29089e-14 -3.82758e-14 -3.2344e-14 -2.627e-14 -1.94525e-14 -1.26349e-14 -5.81734e-15 1.23525e-15 5.9655e-15 9.12395e-15 1.22824e-14 1.54408e-14 1.67972e-14 1.60998e-14 1.42584e-14 1.24171e-14 1.05757e-14 7.80408e-15 6.8519e-15 5.26868e-15 3.68545e-15 2.10223e-15 2.93774e-16
-1.21192e-13 -1.21184e-13 -1.21176e-13 -1.21168e-13 -1.2116e-13 -1.21152e-13 -1.17126e-13 -1.14757e-13 -1.12387e-13 -1.10018e-13 -1.09244e-13 -1.13465e-13 -1.1892e-13 -1.24375e-13 -1.2983e-13 -1.35463e-13 -1.38822e-13 -1.41286e-13 -1.43751e-13 -1.46215e-13 -1.47271e-13 -1.41806e-13 -1.34226e-13 -1.26646e-13 -1.19065e-13 -1.10263e-13 -1.00418e-13 -9.10069e-14 -8.15956e-14 -7.21843e-14 -6.35677e-14 -5.97391e-14 -5.70957e-14 -5.44522e-14 -5.18087e-14 -5.04867e-14 -5.21295e-14 -5.35806e-14 -5.50318e-14 -5.64829e-14 -5.77557e-14 -5.68836e-14 -5.52044e-14 -5.35251e-14 -5.18458e-14 -4.92046e-14 -4.58875e-14 -4.39496e-14 -4.20117e-14 -4.00738e-14 -3.94224e-14 -4.1147e-14 -4.36714e-14 -4.61957e-14 -4.87201e-14 -5.11637e-14 -5.37543e-14 -5.44881e-14 -5.52219e-14 -5.59556e-14 -5.44123e-14 -5.19895e-14 -4.73564e-14 -4.27233e-14 -3.80902e-14 -3.21584e-14 -2.64459e-14 -1.96283e-14 -1.28107e-14 -5.99317e-15 1.05941e-15 5.49295e-15 8.6514e-15 1.18098e-14 1.49683e-14 1.63246e-14 1.57217e-14 1.38804e-14 1.2039e-14 1.01976e-14 7.42601e-15 6.83424e-15 5.25102e-15 3.66779e-15 2.08457e-15 2.76112e-16
-1.21349e-13 -1.21341e-13 -1.21333e-13 -1.21325e-13 -1.21317e-13 -1.21309e-13 -1.17328e-13 -1.14958e-13 -1.12589e-13 -1.10219e-13 -1.09446e-13 -1.13212e-13 -1.18667e-13 -1.24122e-13 -1.29577e-13 -1.35209e-13 -1.3834e-13 -1.40804e-13 -1.43268e-13 -1.45732e-13 -1.46788e-13 -1.4164e-13 -1.3406e-13 -1.26479e-13 -1.18899e-13 -1.10097e-13 -1.00364e-13 -9.0953e-14 -8.15418e-14 -7.21305e-14 -6.35138e-14 -5.97075e-14 -5.7064e-14 -5.44205e-14 -5.1777e-14 -5.0455e-14 -5.2206e-14 -5.36572e-14 -5.51083e-14 -5.65594e-14 -5.78322e-14 -5.70516e-14 -5.53723e-14 -5.3693e-14 -5.20137e-14 -4.93725e-14 -4.60708e-14 -4.41329e-14 -4.2195e-14 -4.02571e-14 -3.96057e-14 -4.09866e-14 -4.35109e-14 -4.60353e-14 -4.85597e-14 -5.10033e-14 -5.3307e-14 -5.40408e-14 -5.47746e-14 -5.55083e-14 -5.3965e-14 -5.18039e-14 -4.71708e-14 -4.25377e-14 -3.79046e-14 -3.19728e-14 -2.66217e-14 -1.98041e-14 -1.29866e-14 -6.16901e-15 8.83574e-16 5.0204e-15 8.17885e-15 1.13373e-14 1.44957e-14 1.58521e-14 1.53437e-14 1.35023e-14 1.16609e-14 9.81954e-15 7.04794e-15 6.81658e-15 5.23336e-15 3.65013e-15 2.0669e-15 2.5845e-16
-1.21505e-13 -1.21497e-13 -1.21489e-13 -1.21481e-13 -1.21473e-13 -1.21465e-13 -1.1752e-13 -1.1516e-13 -1.1279e-13 -1.10421e-13 -1.09648e-13 -1.13059e-13 -1.18413e-13 -1.23868e-13 -1.29323e-13 -1.34956e-13 -1.37908e-13 -1.40321e-13 -1.42786e-13 -1.4525e-13 -1.46306e-13 -1.41404e-13 -1.33894e-13 -1.26313e-13 -1.18733e-13 -1.09931e-13 -1.00286e-13 -9.08992e-14 -8.14879e-14 -7.20766e-14 -6.346e-14 -5.96709e-14 -5.70323e-14 -5.43888e-14 -5.17454e-14 -5.04233e-14 -5.22587e-14 -5.37337e-14 -5.51848e-14 -5.66359e-14 -5.79087e-14 -5.71993e-14 -5.55402e-14 -5.38609e-14 -5.21817e-14 -4.95404e-14 -4.62507e-14 -4.43162e-14 -4.23783e-14 -4.04404e-14 -3.9789e-14 -4.09021e-14 -4.33505e-14 -4.58749e-14 -4.83992e-14 -5.08429e-14 -5.29231e-14 -5.35935e-14 -5.43273e-14 -5.5061e-14 -5.35177e-14 -5.15605e-14 -4.69852e-14 -4.23521e-14 -3.7719e-14 -3.17872e-14 -2.67177e-14 -1.998e-14 -1.31624e-14 -6.34485e-15 7.07738e-16 4.61339e-15 7.7063e-15 1.08647e-14 1.40232e-14 1.53795e-14 1.49447e-14 1.31242e-14 1.12828e-14 9.44147e-15 6.66986e-15 6.7193e-15 5.21569e-15 3.63247e-15 2.04924e-15 2.40788e-16
-1.21661e-13 -1.21653e-13 -1.21645e-13 -1.21637e-13 -1.2163e-13 -1.21622e-13 -1.17676e-13 -1.15362e-13 -1.12992e-13 -1.10622e-13 -1.09849e-13 -1.1326e-13 -1.1816e-13 -1.23615e-13 -1.2907e-13 -1.34703e-13 -1.37654e-13 -1.39839e-13 -1.42303e-13 -1.44767e-13 -1.45823e-13 -1.40922e-13 -1.33727e-13 -1.26147e-13 -1.18567e-13 -1.09764e-13 -1.00119e-13 -9.08454e-14 -8.14341e-14 -7.20228e-14 -6.34062e-14 -5.96171e-14 -5.70007e-14 -5.43572e-14 -5.17137e-14 -5.03917e-14 -5.2227e-14 -5.38102e-14 -5.52613e-14 -5.67125e-14 -5.79853e-14 -5.72758e-14 -5.57081e-14 -5.40289e-14 -5.23496e-14 -4.97083e-14 -4.64186e-14 -4.44995e-14 -4.25616e-14 -4.06237e-14 -3.99723e-14 -4.10854e-14 -4.31901e-14 -4.57144e-14 -4.82388e-14 -5.06824e-14 -5.27627e-14 -5.31462e-14 -5.388e-14 -5.46137e-14 -5.30704e-14 -5.11132e-14 -4.67996e-14 -4.21665e-14 -3.75334e-14 -3.16016e-14 -2.65321e-14 -2.01558e-14 -1.33382e-14 -6.52068e-15 5.31901e-16 4.43756e-15 7.23374e-15 1.03922e-14 1.35506e-14 1.4907e-14 1.44722e-14 1.27462e-14 1.09048e-14 9.0634e-15 6.29179e-15 6.34123e-15 5.19803e-15 3.61481e-15 2.03158e-15 2.23126e-16
-1.21818e-13 -1.2181e-13 -1.21802e-13 -1.21794e-13 -1.21786e-13 -1.21778e-13 -1.17832e-13 -1.15563e-13 -1.13194e-13 -1.10824e-13 -1.10051e-13 -1.13462e-13 -1.17907e-13 -1.23362e-13 -1.28817e-13 -1.34449e-13 -1.37401e-13 -1.39356e-13 -1.41821e-13 -1.44285e-13 -1.45341e-13 -1.40439e-13 -1.33561e-13 -1.25981e-13 -1.184e-13 -1.09598e-13 -9.99532e-14 -9.07915e-14 -8.13802e-14 -7.19689e-14 -6.33523e-14 -5.95632e-14 -5.6969e-14 -5.43255e-14 -5.1682e-14 -5.036e-14 -5.21953e-14 -5.38867e-14 -5.53379e-14 -5.6789e-14 -5.80618e-14 -5.73524e-14 -5.58761e-14 -5.41968e-14 -5.25175e-14 -4.98763e-14 -4.65865e-14 -4.46828e-14 -4.27449e-14 -4.0807e-14 -4.01556e-14 -4.12687e-14 -4.30296e-14 -4.5554e-14 -4.80784e-14 -5.0522e-14 -5.26022e-14 -5.26989e-14 -5.34326e-14 -5.41664e-14 -5.26231e-14 -5.06659e-14 -4.6614e-14 -4.19809e-14 -3.73478e-14 -3.1416e-14 -2.63465e-14 -2.03316e-14 -1.35141e-14 -6.69652e-15 3.56065e-16 4.26172e-15 6.76119e-15 9.91964e-15 1.30781e-14 1.44344e-14 1.39996e-14 1.23681e-14 1.05267e-14 8.68533e-15 5.91372e-15 5.96316e-15 5.18037e-15 3.59714e-15 2.01392e-15 2.05463e-16
-1.21974e-13 -1.21966e-13 -1.21958e-13 -1.2195e-13 -1.21942e-13 -1.21934e-13 -1.17989e-13 -1.15765e-13 -1.13395e-13 -1.11025e-13 -1.10252e-13 -1.13664e-13 -1.17653e-13 -1.23108e-13 -1.28563e-13 -1.34196e-13 -1.37148e-13 -1.38874e-13 -1.41338e-13 -1.43802e-13 -1.44858e-13 -1.39957e-13 -1.33395e-13 -1.25815e-13 -1.18234e-13 -1.09432e-13 -9.9787e-14 -9.07377e-14 -8.13264e-14 -7.19151e-14 -6.32985e-14 -5.95094e-14 -5.69373e-14 -5.42939e-14 -5.16504e-14 -5.03284e-14 -5.21637e-14 -5.39633e-14 -5.54144e-14 -5.68655e-14 -5.81383e-14 -5.74289e-14 -5.6044e-14 -5.43647e-14 -5.26854e-14 -5.00442e-14 -4.67544e-14 -4.48661e-14 -4.29282e-14 -4.09903e-14 -4.03389e-14 -4.1452e-14 -4.28692e-14 -4.53936e-14 -4.79179e-14 -5.03616e-14 -5.24418e-14 -5.22516e-14 -5.29853e-14 -5.37191e-14 -5.21758e-14 -5.02186e-14 -4.64284e-14 -4.17953e-14 -3.71622e-14 -3.12304e-14 -2.61609e-14 -2.05075e-14 -1.36899e-14 -6.87235e-15 1.80229e-16 4.08589e-15 6.28864e-15 9.44709e-15 1.26055e-14 1.39618e-14 1.35271e-14 1.199e-14 1.01486e-14 8.30726e-15 5.53565e-15 5.58509e-15 5.16271e-15 3.57948e-15 1.99626e-15 1.87801e-16
-1.2213e-13 -1.22123e-13 -1.22115e-13 -1.22107e-13 -1.22099e-13 -1.22091e-13 -1.18145e-13 -1.15947e-13 -1.13597e-13 -1.11227e-13 -1.10454e-13 -1.13865e-13 -1.17591e-13 -1.22855e-13 -1.2831e-13 -1.33943e-13 -1.36894e-13 -1.38488e-13 -1.40856e-13 -1.4332e-13 -1.44376e-13 -1.39474e-13 -1.33096e-13 -1.25648e-13 -1.18068e-13 -1.09266e-13 -9.96208e-14 -9.06365e-14 -8.12725e-14 -7.18612e-14 -6.32446e-14 -5.94555e-14 -5.68963e-14 -5.42622e-14 -5.16187e-14 -5.02967e-14 -5.2132e-14 -5.39943e-14 -5.54909e-14 -5.69421e-14 -5.82148e-14 -5.75054e-14 -5.61734e-14 -5.45326e-14 -5.28534e-14 -5.02121e-14 -4.69224e-14 -4.50429e-14 -4.31115e-14 -4.11736e-14 -4.05222e-14 -4.16353e-14 -4.28535e-14 -4.52332e-14 -4.77575e-14 -5.02011e-14 -5.22814e-14 -5.1925e-14 -5.2538e-14 -5.32718e-14 -5.17285e-14 -4.97713e-14 -4.61327e-14 -4.16097e-14 -3.69766e-14 -3.10448e-14 -2.59753e-14 -2.05312e-14 -1.38658e-14 -7.04819e-15 4.39323e-18 3.91005e-15 5.94098e-15 8.97454e-15 1.2133e-14 1.34893e-14 1.30545e-14 1.15722e-14 9.77056e-15 7.92918e-15 5.15758e-15 5.20702e-15 4.99335e-15 3.56182e-15 1.97859e-15 1.70139e-16
-1.22287e-13 -1.22279e-13 -1.22271e-13 -1.22263e-13 -1.22255e-13 -1.22247e-13 -1.18302e-13 -1.16104e-13 -1.13798e-13 -1.11429e-13 -1.10655e-13 -1.14067e-13 -1.17793e-13 -1.22602e-13 -1.28057e-13 -1.33689e-13 -1.36641e-13 -1.38234e-13 -1.40373e-13 -1.42837e-13 -1.43893e-13 -1.38992e-13 -1.32613e-13 -1.25482e-13 -1.17902e-13 -1.09099e-13 -9.94546e-14 -9.04703e-14 -8.12187e-14 -7.18074e-14 -6.31908e-14 -5.94017e-14 -5.68425e-14 -5.42305e-14 -5.1587e-14 -5.0265e-14 -5.21004e-14 -5.39626e-14 -5.55675e-14 -5.70186e-14 -5.82914e-14 -5.75819e-14 -5.625e-14 -5.47006e-14 -5.30213e-14 -5.038e-14 -4.70903e-14 -4.52109e-14 -4.32948e-14 -4.13569e-14 -4.07055e-14 -4.18186e-14 -4.30368e-14 -4.50727e-14 -4.75971e-14 -5.00407e-14 -5.2121e-14 -5.17646e-14 -5.20907e-14 -5.28245e-14 -5.12812e-14 -4.9324e-14 -4.56854e-14 -4.14241e-14 -3.6791e-14 -3.08592e-14 -2.57897e-14 -2.03456e-14 -1.40416e-14 -7.22403e-15 -1.71443e-16 3.73421e-15 5.76514e-15 8.50198e-15 1.16604e-14 1.30167e-14 1.2582e-14 1.10996e-14 9.39249e-15 7.55111e-15 4.77951e-15 4.82895e-15 4.61528e-15 3.54416e-15 1.96093e-15 1.52477e-16
-1.22443e-13 -1.22435e-13 -1.22427e-13 -1.22419e-13 -1.22411e-13 -1.22404e-13 -1.18458e-13 -1.1626e-13 -1.14e-13 -1.1163e-13 -1.10857e-13 -1.14268e-13 -1.17995e-13 -1.22348e-13 -1.27803e-13 -1.33436e-13 -1.36388e-13 -1.37981e-13 -1.39891e-13 -1.42355e-13 -1.43411e-13 -1.38509e-13 -1.32131e-13 -1.25316e-13 -1.17736e-13 -1.08933e-13 -9.92883e-14 -9.03041e-14 -8.11648e-14 -7.17535e-14 -6.31369e-14 -5.93478e-14 -5.67886e-14 -5.41989e-14 -5.15554e-14 -5.02334e-14 -5.20687e-14 -5.39309e-14 -5.5644e-14 -5.70951e-14 -5.83679e-14 -5.76585e-14 -5.63265e-14 -5.48685e-14 -5.31892e-14 -5.0548e-14 -4.72582e-14 -4.53788e-14 -4.34781e-14 -4.15403e-14 -4.08889e-14 -4.20019e-14 -4.32201e-14 -4.49123e-14 -4.74367e-14 -4.98803e-14 -5.19605e-14 -5.16042e-14 -5.16434e-14 -5.23772e-14 -5.08339e-14 -4.88767e-14 -4.52381e-14 -4.12385e-14 -3.66055e-14 -3.06736e-14 -2.56041e-14 -2.016e-14 -1.42174e-14 -7.39986e-15 -3.47279e-16 3.55838e-15 5.58931e-15 8.02943e-15 1.11879e-14 1.25442e-14 1.21094e-14 1.06271e-14 9.01442e-15 7.17304e-15 4.40143e-15 4.45087e-15 4.2372e-15 3.5265e-15 1.94327e-15 1.34815e-16
-1.226e-13 -1.22592e-13 -1.22584e-13 -1.22576e-13 -1.22568e-13 -1.2256e-13 -1.18614e-13 -1.16416e-13 -1.14201e-13 -1.11832e-13 -1.11058e-13 -1.1447e-13 -1.18196e-13 -1.22095e-13 -1.2755e-13 -1.33183e-13 -1.36134e-13 -1.37728e-13 -1.39408e-13 -1.41872e-13 -1.42928e-13 -1.38027e-13 -1.31648e-13 -1.2515e-13 -1.17569e-13 -1.08767e-13 -9.91221e-14 -9.01378e-14 -8.1111e-14 -7.16997e-14 -6.30831e-14 -5.9294e-14 -5.67348e-14 -5.41672e-14 -5.15237e-14 -5.02017e-14 -5.2037e-14 -5.38993e-14 -5.57205e-14 -5.71716e-14 -5.84444e-14 -5.7735e-14 -5.6403e-14 -5.50364e-14 -5.33571e-14 -5.07159e-14 -4.74261e-14 -4.55467e-14 -4.36615e-14 -4.17236e-14 -4.10722e-14 -4.21852e-14 -4.34034e-14 -4.47519e-14 -4.72762e-14 -4.97199e-14 -5.18001e-14 -5.14437e-14 -5.11961e-14 -5.19299e-14 -5.03866e-14 -4.84293e-14 -4.47908e-14 -4.1053e-14 -3.64199e-14 -3.0488e-14 -2.54185e-14 -1.99744e-14 -1.43933e-14 -7.5757e-15 -5.23115e-16 3.38254e-15 5.41347e-15 7.55688e-15 1.07153e-14 1.20716e-14 1.16369e-14 1.01545e-14 8.63635e-15 6.79497e-15 4.02336e-15 4.0728e-15 3.85913e-15 3.50883e-15 1.92561e-15 1.17153e-16
-1.22756e-13 -1.22748e-13 -1.2274e-13 -1.22732e-13 -1.22724e-13 -1.22716e-13 -1.18771e-13 -1.16573e-13 -1.14375e-13 -1.12033e-13 -1.1126e-13 -1.14671e-13 -1.18398e-13 -1.22124e-13 -1.27296e-13 -1.32929e-13 -1.35881e-13 -1.37474e-13 -1.39068e-13 -1.4139e-13 -1.42446e-13 -1.37544e-13 -1.31166e-13 -1.24787e-13 -1.17403e-13 -1.08601e-13 -9.89559e-14 -8.99716e-14 -8.09874e-14 -7.16458e-14 -6.30292e-14 -5.92401e-14 -5.66809e-14 -5.41218e-14 -5.14921e-14 -5.017e-14 -5.20054e-14 -5.38676e-14 -5.57299e-14 -5.72482e-14 -5.8521e-14 -5.78115e-14 -5.64796e-14 -5.51476e-14 -5.3525e-14 -5.08838e-14 -4.75941e-14 -4.57146e-14 -4.38352e-14 -4.19069e-14 -4.12555e-14 -4.23685e-14 -4.35867e-14 -4.48049e-14 -4.71158e-14 -4.95594e-14 -5.16397e-14 -5.12833e-14 -5.09269e-14 -5.14826e-14 -4.99393e-14 -4.7982e-14 -4.43435e-14 -4.07049e-14 -3.62343e-14 -3.03024e-14 -2.52329e-14 -1.97888e-14 -1.43447e-14 -7.75154e-15 -6.98951e-16 3.20671e-15 5.23763e-15 7.26856e-15 1.02428e-14 1.15991e-14 1.11643e-14 9.68197e-15 8.19961e-15 6.4169e-15 3.64529e-15 3.69473e-15 3.48106e-15 3.26739e-15 1.90795e-15 9.9491e-17
-1.22912e-13 -1.22904e-13 -1.22897e-13 -1.22889e-13 -1.22881e-13 -1.22873e-13 -1.18927e-13 -1.16729e-13 -1.14531e-13 -1.12235e-13 -1.11461e-13 -1.14873e-13 -1.18599e-13 -1.22325e-13 -1.27043e-13 -1.32676e-13 -1.35627e-13 -1.37221e-13 -1.38814e-13 -1.40907e-13 -1.41963e-13 -1.37062e-13 -1.30683e-13 -1.24305e-13 -1.17237e-13 -1.08435e-13 -9.87897e-14 -8.98054e-14 -8.08211e-14 -7.1592e-14 -6.29754e-14 -5.91863e-14 -5.66271e-14 -5.40679e-14 -5.14604e-14 -5.01384e-14 -5.19737e-14 -5.3836e-14 -5.56982e-14 -5.73247e-14 -5.85975e-14 -5.78881e-14 -5.65561e-14 -5.52241e-14 -5.3693e-14 -5.10517e-14 -4.7762e-14 -4.58826e-14 -4.40031e-14 -4.20902e-14 -4.14388e-14 -4.25518e-14 -4.377e-14 -4.49882e-14 -4.69554e-14 -4.9399e-14 -5.14792e-14 -5.11229e-14 -5.07665e-14 -5.10353e-14 -4.9492e-14 -4.75347e-14 -4.38961e-14 -4.02576e-14 -3.60487e-14 -3.01168e-14 -2.50473e-14 -1.96032e-14 -1.41591e-14 -7.92737e-15 -8.74787e-16 3.03087e-15 5.0618e-15 7.09273e-15 9.77022e-15 1.11265e-14 1.06918e-14 9.20942e-15 7.72706e-15 6.03883e-15 3.26722e-15 3.31666e-15 3.10299e-15 2.88932e-15 1.89028e-15 8.18289e-17
-1.23069e-13 -1.23061e-13 -1.23053e-13 -1.23045e-13 -1.23037e-13 -1.23029e-13 -1.19083e-13 -1.16885e-13 -1.14688e-13 -1.12436e-13 -1.11663e-13 -1.15074e-13 -1.18801e-13 -1.22527e-13 -1.2679e-13 -1.32422e-13 -1.35374e-13 -1.36968e-13 -1.38561e-13 -1.40425e-13 -1.41481e-13 -1.36579e-13 -1.30201e-13 -1.23822e-13 -1.17071e-13 -1.08268e-13 -9.86235e-14 -8.96392e-14 -8.06549e-14 -7.15381e-14 -6.29215e-14 -5.91324e-14 -5.65732e-14 -5.40141e-14 -5.14287e-14 -5.01067e-14 -5.1942e-14 -5.38043e-14 -5.56665e-14 -5.74012e-14 -5.8674e-14 -5.79646e-14 -5.66326e-14 -5.53006e-14 -5.38609e-14 -5.12197e-14 -4.79299e-14 -4.60505e-14 -4.41711e-14 -4.22735e-14 -4.16221e-14 -4.27351e-14 -4.39533e-14 -4.51715e-14 -4.67949e-14 -4.92386e-14 -5.13188e-14 -5.09624e-14 -5.06061e-14 -5.0588e-14 -4.90447e-14 -4.70874e-14 -4.34488e-14 -3.98102e-14 -3.58631e-14 -2.99312e-14 -2.48617e-14 -1.94176e-14 -1.39735e-14 -8.10321e-15 -1.05062e-15 2.85503e-15 4.88596e-15 6.91689e-15 9.29767e-15 1.0654e-14 1.02192e-14 8.73687e-15 7.25451e-15 5.66075e-15 2.88915e-15 2.93859e-15 2.72492e-15 2.51125e-15 1.87262e-15 6.41668e-17
-1.23225e-13 -1.23217e-13 -1.23209e-13 -1.23201e-13 -1.23193e-13 -1.23185e-13 -1.1924e-13 -1.17042e-13 -1.14844e-13 -1.12638e-13 -1.11865e-13 -1.15276e-13 -1.19002e-13 -1.22729e-13 -1.26536e-13 -1.32169e-13 -1.35121e-13 -1.36714e-13 -1.38308e-13 -1.39942e-13 -1.40998e-13 -1.36097e-13 -1.29718e-13 -1.2334e-13 -1.16904e-13 -1.08102e-13 -9.84572e-14 -8.9473e-14 -8.04887e-14 -7.14843e-14 -6.28677e-14 -5.90786e-14 -5.65194e-14 -5.39602e-14 -5.13971e-14 -5.00751e-14 -5.19104e-14 -5.37726e-14 -5.56349e-14 -5.74778e-14 -5.87505e-14 -5.80411e-14 -5.67091e-14 -5.53772e-14 -5.40288e-14 -5.13876e-14 -4.80978e-14 -4.62184e-14 -4.4339e-14 -4.24568e-14 -4.18054e-14 -4.29184e-14 -4.41366e-14 -4.53548e-14 -4.66345e-14 -4.90781e-14 -5.11584e-14 -5.0802e-14 -5.04457e-14 -5.01407e-14 -4.85974e-14 -4.66401e-14 -4.30015e-14 -3.93629e-14 -3.56775e-14 -2.97456e-14 -2.46761e-14 -1.9232e-14 -1.37879e-14 -8.27904e-15 -1.22646e-15 2.6792e-15 4.71013e-15 6.74105e-15 8.82512e-15 1.01814e-14 9.74667e-15 8.26431e-15 6.78196e-15 5.28268e-15 2.51108e-15 2.56052e-15 2.34685e-15 2.13318e-15 1.85496e-15 4.65048e-17
-1.23382e-13 -1.23374e-13 -1.23366e-13 -1.23358e-13 -1.2335e-13 -1.23342e-13 -1.19396e-13 -1.17198e-13 -1.15e-13 -1.12802e-13 -1.12066e-13 -1.15477e-13 -1.19204e-13 -1.2293e-13 -1.26656e-13 -1.31916e-13 -1.34867e-13 -1.36461e-13 -1.38054e-13 -1.39648e-13 -1.40516e-13 -1.35614e-13 -1.29236e-13 -1.22857e-13 -1.16479e-13 -1.07936e-13 -9.8291e-14 -8.93067e-14 -8.03225e-14 -7.13382e-14 -6.28138e-14 -5.90247e-14 -5.64655e-14 -5.39064e-14 -5.13472e-14 -5.00434e-14 -5.18787e-14 -5.3741e-14 -5.56032e-14 -5.74655e-14 -5.88271e-14 -5.81176e-14 -5.67857e-14 -5.54537e-14 -5.41217e-14 -5.15555e-14 -4.82658e-14 -4.63863e-14 -4.45069e-14 -4.26275e-14 -4.19887e-14 -4.31018e-14 -4.43199e-14 -4.55381e-14 -4.67563e-14 -4.89177e-14 -5.0998e-14 -5.06416e-14 -5.02852e-14 -4.99289e-14 -4.81501e-14 -4.61928e-14 -4.25542e-14 -3.89156e-14 -3.5277e-14 -2.95601e-14 -2.44906e-14 -1.90464e-14 -1.36023e-14 -8.15818e-15 -1.4023e-15 2.50336e-15 4.53429e-15 6.56522e-15 8.59614e-15 9.70889e-15 9.27412e-15 7.79176e-15 6.30941e-15 4.82705e-15 2.133e-15 2.18244e-15 1.96877e-15 1.75511e-15 1.54144e-15 2.88427e-17
-1.23538e-13 -1.2353e-13 -1.23522e-13 -1.23514e-13 -1.23506e-13 -1.23498e-13 -1.19553e-13 -1.17355e-13 -1.15157e-13 -1.12959e-13 -1.12268e-13 -1.15679e-13 -1.19405e-13 -1.23132e-13 -1.26858e-13 -1.31662e-13 -1.34614e-13 -1.36207e-13 -1.37801e-13 -1.39395e-13 -1.40033e-13 -1.35132e-13 -1.28753e-13 -1.22375e-13 -1.15996e-13 -1.0777e-13 -9.81248e-14 -8.91405e-14 -8.01563e-14 -7.1172e-14 -6.276e-14 -5.89709e-14 -5.64117e-14 -5.38525e-14 -5.12933e-14 -5.00117e-14 -5.1847e-14 -5.37093e-14 -5.55715e-14 -5.74338e-14 -5.89036e-14 -5.81942e-14 -5.68622e-14 -5.55302e-14 -5.41982e-14 -5.17234e-14 -4.84337e-14 -4.65543e-14 -4.46748e-14 -4.27954e-14 -4.2172e-14 -4.32851e-14 -4.45032e-14 -4.57214e-14 -4.69396e-14 -4.87573e-14 -5.08375e-14 -5.04812e-14 -5.01248e-14 -4.97684e-14 -4.77028e-14 -4.57455e-14 -4.21069e-14 -3.84683e-14 -3.48297e-14 -2.93745e-14 -2.4305e-14 -1.88608e-14 -1.34167e-14 -7.97259e-15 -1.57813e-15 2.32753e-15 4.35845e-15 6.38938e-15 8.42031e-15 9.23634e-15 8.80157e-15 7.31921e-15 5.83686e-15 4.3545e-15 1.75493e-15 1.80437e-15 1.5907e-15 1.37703e-15 1.16337e-15 1.11806e-17