# vtk DataFile Version 2.0
track0
ASCII
DATASET POLYDATA
POINTS 1720 float
-1.001 -0.05 0.0011
-1.0008 -0.05 0.0011
-1.0006 -0.05 0.0011
-1.0004 -0.05 0.0011
-1.0002 -0.05 0.0011
-1 -0.05 0.0011
-0.8 -0.05 0.0011
-0.6 -0.05 0.0011
-0.4 -0.05 0.0011
-0.2 -0.05 0.0011
0 -0.05 0.0011
0.2 -0.05 0.0011
0.4 -0.05 0.0011
0.6 -0.05 0.0011
0.8 -0.05 0.0011
1 -0.05 0.0011
1.2 -0.05 0.0011
1.4 -0.05 0.0011
1.6 -0.05 0.0011
1.8 -0.05 0.0011
2 -0.05 0.0011
2.2 -0.05 0.0011
2.4 -0.05 0.0011
2.6 -0.05 0.0011
2.8 -0.05 0.0011
3 -0.05 0.0011
3.2 -0.05 0.0011
3.4 -0.05 0.0011
3.6 -0.05 0.0011
3.8 -0.05 0.0011
4 -0.05 0.0011
4.2 -0.05 0.0011
4.4 -0.05 0.0011
4.6 -0.05 0.0011
4.8 -0.05 0.0011
5 -0.05 0.0011
5.2 -0.05 0.0011
5.4 -0.05 0.0011
5.6 -0.05 0.0011
5.8 -0.05 0.0011
6 -0.05 0.0011
6.2 -0.05 0.0011
6.4 -0.05 0.0011
6.6 -0.05 0.0011
6.8 -0.05 0.0011
7 -0.05 0.0011
7.2 -0.05 0.0011
7.4 -0.05 0.0011
7.6 -0.05 0.0011
7.8 -0.05 0.0011
8 -0.05 0.0011
8.2 -0.05 0.0011
8.4 -0.05 0.0011
8.6 -0.05 0.0011
8.8 -0.05 0.0011
9 -0.05 0.0011
9.2 -0.05 0.0011
9.4 -0.05 0.0011
9.6 -0.05 0.0011
9.8 -0.05 0.0011
10 -0.05 0.0011
10.2 -0.05 0.0011
10.4 -0.05 0.0011
10.6 -0.05 0.0011
10.8 -0.05 0.0011
11 -0.05 0.0011
11.2 -0.05 0.0011
11.4 -0.05 0.0011
11.6 -0.05 0.0011
11.8 -0.05 0.0011
12 -0.05 0.0011
12.2 -0.05 0.0011
12.4 -0.05 0.0011
12.6 -0.05 0.0011
12.8 -0.05 0.0011
13 -0.05 0.0011
13.2 -0.05 0.0011
13.4 -0.05 0.0011
13.6 -0.05 0.0011
13.8 -0.05 0.0011
14 -0.05 0.0011
14.2 -0.05 0.0011
14.4 -0.05 0.0011
14.6 -0.05 0.0011
14.8 -0.05 0.0011
15 -0.05 0.0011
-1.001 -0.05 0.0537316
-1.0008 -0.05 0.0537316
-1.0006 -0.05 0.0537316
-1.0004 -0.05 0.0537316
-1.0002 -0.05 0.0537316
-1 -0.05 0.0537316
-0.8 -0.05 0.0537316
-0.6 -0.05 0.0537316
-0.4 -0.05 0.0537316
-0.2 -0.05 0.0537316
0 -0.05 0.0537316
0.2 -0.05 0.0537316
0.4 -0.05 0.0537316
0.6 -0.05 0.0537316
0.8 -0.05 0.0537316
1 -0.05 0.0537316
1.2 -0.05 0.0537316
1.4 -0.05 0.0537316
1.6 -0.05 0.0537316
1.8 -0.05 0.0537316
2 -0.05 0.0537316
2.2 -0.05 0.0537316
2.4 -0.05 0.0537316
2.6 -0.05 0.0537316
2.8 -0.05 0.0537316
3 -0.05 0.0537316
3.2 -0.05 0.0537316
3.4 -0.05 0.0537316
3.6 -0.05 0.0537316
3.8 -0.05 0.0537316
4 -0.05 0.0537316
4.2 -0.05 0.0537316
4.4 -0.05 0.0537316
4.6 -0.05 0.0537316
4.8 -0.05 0.0537316
5 -0.05 0.0537316
5.2 -0.05 0.0537316
5.4 -0.05 0.0537316
5.6 -0.05 0.0537316
5.8 -0.05 0.0537316
6 -0.05 0.0537316
6.2 -0.05 0.0537316
6.4 -0.05 0.0537316
6.6 -0.05 0.0537316
6.8 -0.05 0.0537316
7 -0.05 0.0537316
7.2 -0.05 0.0537316
7.4 -0.05 0.0537316
7.6 -0.05 0.0537316
7.8 -0.05 0.0537316
8 -0.05 0.0537316
8.2 -0.05 0.0537316
8.4 -0.05 0.0537316
8.6 -0.05 0.0537316
8.8 -0.05 0.0537316
9 -0.05 0.0537316
9.2 -0.05 0.0537316
9.4 -0.05 0.0537316
9.6 -0.05 0.0537316
9.8 -0.05 0.0537316
10 -0.05 0.0537316
10.2 -0.05 0.0537316
10.4 -0.05 0.0537316
10.6 -0.05 0.0537316
10.8 -0.05 0.0537316
11 -0.05 0.0537316
11.2 -0.05 0.0537316
11.4 -0.05 0.0537316
11.6 -0.05 0.0537316
11.8 -0.05 0.0537316
12 -0.05 0.0537316
12.2 -0.05 0.0537316
12.4 -0.05 0.0537316
12.6 -0.05 0.0537316
12.8 -0.05 0.0537316
13 -0.05 0.0537316
13.2 -0.05 0.0537316
13.4 -0.05 0.0537316
13.6 -0.05 0.0537316
13.8 -0.05 0.0537316
14 -0.05 0.0537316
14.2 -0.05 0.0537316
14.4 -0.05 0.0537316
14.6 -0.05 0.0537316
14.8 -0.05 0.0537316
15 -0.05 0.0537316
-1.001 -0.05 0.106363
-1.0008 -0.05 0.106363
-1.0006 -0.05 0.106363
-1.0004 -0.05 0.106363
-1.0002 -0.05 0.106363
-1 -0.05 0.106363
-0.8 -0.05 0.106363
-0.6 -0.05 0.106363
-0.4 -0.05 0.106363
-0.2 -0.05 0.106363
0 -0.05 0.106363
0.2 -0.05 0.106363
0.4 -0.05 0.106363
0.6 -0.05 0.106363
0.8 -0.05 0.106363
1 -0.05 0.106363
1.2 -0.05 0.106363
1.4 -0.05 0.106363
1.6 -0.05 0.106363
1.8 -0.05 0.106363
2 -0.05 0.106363
2.2 -0.05 0.106363
2.4 -0.05 0.106363
2.6 -0.05 0.106363
2.8 -0.05 0.106363
3 -0.05 0.106363
3.2 -0.05 0.106363
3.4 -0.05 0.106363
3.6 -0.05 0.106363
3.8 -0.05 0.106363
4 -0.05 0.106363
4.2 -0.05 0.106363
4.4 -0.05 0.106363
4.6 -0.05 0.106363
4.8 -0.05 0.106363
5 -0.05 0.106363
5.2 -0.05 0.106363
5.4 -0.05 0.106363
5.6 -0.05 0.106363
5.8 -0.05 0.106363
6 -0.05 0.106363
6.2 -0.05 0.106363
6.4 -0.05 0.106363
6.6 -0.05 0.106363
6.8 -0.05 0.106363
7 -0.05 0.106363
7.2 -0.05 0.106363
7.4 -0.05 0.106363
7.6 -0.05 0.106363
7.8 -0.05 0.106363
8 -0.05 0.106363
8.2 -0.05 0.106363
8.4 -0.05 0.106363
8.6 -0.05 0.106363
8.8 -0.05 0.106363
9 -0.05 0.106363
9.2 -0.05 0.106363
9.4 -0.05 0.106363
9.6 -0.05 0.106363
9.8 -0.05 0.106363
10 -0.05 0.106363
10.2 -0.05 0.106363
10.4 -0.05 0.106363
10.6 -0.05 0.106363
10.8 -0.05 0.106363
11 -0.05 0.106363
11.2 -0.05 0.106363
11.4 -0.05 0.106363
11.6 -0.05 0.106363
11.8 -0.05 0.106363
12 -0.05 0.106363
12.2 -0.05 0.106363
12.4 -0.05 0.106363
12.6 -0.05 0.106363
12.8 -0.05 0.106363
13 -0.05 0.106363
13.2 -0.05 0.106363
13.4 -0.05 0.106363
13.6 -0.05 0.106363
13.8 -0.05 0.106363
14 -0.05 0.106363
14.2 -0.05 0.106363
14.4 -0.05 0.106363
14.6 -0.05 0.106363
14.8 -0.05 0.106363
15 -0.05 0.106363
-1.001 -0.05 0.158995
-1.0008 -0.05 0.158995
-1.0006 -0.05 0.158995
-1.0004 -0.05 0.158995
-1.0002 -0.05 0.158995
-1 -0.05 0.158995
-0.8 -0.05 0.158995
-0.6 -0.05 0.158995
-0.4 -0.05 0.158995
-0.2 -0.05 0.158995
0 -0.05 0.158995
0.2 -0.05 0.158995
0.4 -0.05 0.158995
0.6 -0.05 0.158995
0.8 -0.05 0.158995
1 -0.05 0.158995
1.2 -0.05 0.158995
1.4 -0.05 0.158995
1.6 -0.05 0.158995
1.8 -0.05 0.158995
2 -0.05 0.158995
2.2 -0.05 0.158995
2.4 -0.05 0.158995
2.6 -0.05 0.158995
2.8 -0.05 0.158995
3 -0.05 0.158995
3.2 -0.05 0.158995
3.4 -0.05 0.158995
3.6 -0.05 0.158995
3.8 -0.05 0.158995
4 -0.05 0.158995
4.2 -0.05 0.158995
4.4 -0.05 0.158995
4.6 -0.05 0.158995
4.8 -0.05 0.158995
5 -0.05 0.158995
5.2 -0.05 0.158995
5.4 -0.05 0.158995
5.6 -0.05 0.158995
5.8 -0.05 0.158995
6 -0.05 0.158995
6.2 -0.05 0.158995
6.4 -0.05 0.158995
6.6 -0.05 0.158995
6.8 -0.05 0.158995
7 -0.05 0.158995
7.2 -0.05 0.158995
7.4 -0.05 0.158995
7.6 -0.05 0.158995
7.8 -0.05 0.158995
8 -0.05 0.158995
8.2 -0.05 0.158995
8.4 -0.05 0.158995
8.6 -0.05 0.158995
8.8 -0.05 0.158995
9 -0.05 0.158995
9.2 -0.05 0.158995
9.4 -0.05 0.158995
9.6 -0.05 0.158995
9.8 -0.05 0.158995
10 -0.05 0.158995
10.2 -0.05 0.158995
10.4 -0.05 0.158995
10.6 -0.05 0.158995
10.8 -0.05 0.158995
11 -0.05 0.158995
11.2 -0.05 0.158995
11.4 -0.05 0.158995
11.6 -0.05 0.158995
11.8 -0.05 0.158995
12 -0.05 0.158995
12.2 -0.05 0.158995
12.4 -0.05 0.158995
12.6 -0.05 0.158995
12.8 -0.05 0.158995
13 -0.05 0.158995
13.2 -0.05 0.158995
13.4 -0.05 0.158995
13.6 -0.05 0.158995
13.8 -0.05 0.158995
14 -0.05 0.158995
14.2 -0.05 0.158995
14.4 -0.05 0.158995
14.6 -0.05 0.158995
14.8 -0.05 0.158995
15 -0.05 0.158995
-1.001 -0.05 0.211626
-1.0008 -0.05 0.211626
-1.0006 -0.05 0.211626
-1.0004 -0.05 0.211626
-1.0002 -0.05 0.211626
-1 -0.05 0.211626
-0.8 -0.05 0.211626
-0.6 -0.05 0.211626
-0.4 -0.05 0.211626
-0.2 -0.05 0.211626
0 -0.05 0.211626
0.2 -0.05 0.211626
0.4 -0.05 0.211626
0.6 -0.05 0.211626
0.8 -0.05 0.211626
1 -0.05 0.211626
1.2 -0.05 0.211626
1.4 -0.05 0.211626
1.6 -0.05 0.211626
1.8 -0.05 0.211626
2 -0.05 0.211626
2.2 -0.05 0.211626
2.4 -0.05 0.211626
2.6 -0.05 0.211626
2.8 -0.05 0.211626
3 -0.05 0.211626
3.2 -0.05 0.211626
3.4 -0.05 0.211626
3.6 -0.05 0.211626
3.8 -0.05 0.211626
4 -0.05 0.211626
4.2 -0.05 0.211626
4.4 -0.05 0.211626
4.6 -0.05 0.211626
4.8 -0.05 0.211626
5 -0.05 0.211626
5.2 -0.05 0.211626
5.4 -0.05 0.211626
5.6 -0.05 0.211626
5.8 -0.05 0.211626
6 -0.05 0.211626
6.2 -0.05 0.211626
6.4 -0.05 0.211626
6.6 -0.05 0.211626
6.8 -0.05 0.211626
7 -0.05 0.211626
7.2 -0.05 0.211626
7.4 -0.05 0.211626
7.6 -0.05 0.211626
7.8 -0.05 0.211626
8 -0.05 0.211626
8.2 -0.05 0.211626
8.4 -0.05 0.211626
8.6 -0.05 0.211626
8.8 -0.05 0.211626
9 -0.05 0.211626
9.2 -0.05 0.211626
9.4 -0.05 0.211626
9.6 -0.05 0.211626
9.8 -0.05 0.211626
10 -0.05 0.211626
10.2 -0.05 0.211626
10.4 -0.05 0.211626
10.6 -0.05 0.211626
10.8 -0.05 0.211626
11 -0.05 0.211626
11.2 -0.05 0.211626
11.4 -0.05 0.211626
11.6 -0.05 0.211626
11.8 -0.05 0.211626
12 -0.05 0.211626
12.2 -0.05 0.211626
12.4 -0.05 0.211626
12.6 -0.05 0.211626
12.8 -0.05 0.211626
13 -0.05 0.211626
13.2 -0.05 0.211626
13.4 -0.05 0.211626
13.6 -0.05 0.211626
13.8 -0.05 0.211626
14 -0.05 0.211626
14.2 -0.05 0.211626
14.4 -0.05 0.211626
14.6 -0.05 0.211626
14.8 -0.05 0.211626
15 -0.05 0.211626
-1.001 -0.05 0.264258
-1.0008 -0.05 0.264258
-1.0006 -0.05 0.264258
-1.0004 -0.05 0.264258
-1.0002 -0.05 0.264258
-1 -0.05 0.264258
-0.8 -0.05 0.264258
-0.6 -0.05 0.264258
-0.4 -0.05 0.264258
-0.2 -0.05 0.264258
0 -0.05 0.264258
0.2 -0.05 0.264258
0.4 -0.05 0.264258
0.6 -0.05 0.264258
0.8 -0.05 0.264258
1 -0.05 0.264258
1.2 -0.05 0.264258
1.4 -0.05 0.264258
1.6 -0.05 0.264258
1.8 -0.05 0.264258
2 -0.05 0.264258
2.2 -0.05 0.264258
2.4 -0.05 0.264258
2.6 -0.05 0.264258
2.8 -0.05 0.264258
3 -0.05 0.264258
3.2 -0.05 0.264258
3.4 -0.05 0.264258
3.6 -0.05 0.264258
3.8 -0.05 0.264258
4 -0.05 0.264258
4.2 -0.05 0.264258
4.4 -0.05 0.264258
4.6 -0.05 0.264258
4.8 -0.05 0.264258
5 -0.05 0.264258
5.2 -0.05 0.264258
5.4 -0.05 0.264258
5.6 -0.05 0.264258
5.8 -0.05 0.264258
6 -0.05 0.264258
6.2 -0.05 0.264258
6.4 -0.05 0.264258
6.6 -0.05 0.264258
6.8 -0.05 0.264258
7 -0.05 0.264258
7.2 -0.05 0.264258
7.4 -0.05 0.264258
7.6 -0.05 0.264258
7.8 -0.05 0.264258
8 -0.05 0.264258
8.2 -0.05 0.264258
8.4 -0.05 0.264258
8.6 -0.05 0.264258
8.8 -0.05 0.264258
9 -0.05 0.264258
9.2 -0.05 0.264258
9.4 -0.05 0.264258
9.6 -0.05 0.264258
9.8 -0.05 0.264258
10 -0.05 0.264258
10.2 -0.05 0.264258
10.4 -0.05 0.264258
10.6 -0.05 0.264258
10.8 -0.05 0.264258
11 -0.05 0.264258
11.2 -0.05 0.264258
11.4 -0.05 0.264258
11.6 -0.05 0.264258
11.8 -0.05 0.264258
12 -0.05 0.264258
12.2 -0.05 0.264258
12.4 -0.05 0.264258
12.6 -0.05 0.264258
12.8 -0.05 0.264258
13 -0.05 0.264258
13.2 -0.05 0.264258
13.4 -0.05 0.264258
13.6 -0.05 0.264258
13.8 -0.05 0.264258
14 -0.05 0.264258
14.2 -0.05 0.264258
14.4 -0.05 0.264258
14.6 -0.05 0.264258
14.8 -0.05 0.264258
15 -0.05 0.264258
-1.001 -0.05 0.316889
-1.0008 -0.05 0.316889
-1.0006 -0.05 0.316889
-1.0004 -0.05 0.316889
[...]
POINT_DATA 1720
 FIELD attributes 1
U 3 1720 float
20 	-2.71011e-18 	9.49214e-22 20 	-2.49408e-18 	1.24105e-19 20 	-2.27805e-18 	2.47261e-19 20 	-2.06203e-18 	3.70417e-19 20 	-1.846e-18 	4.93573e-19 20 	-1.62997e-18 	6.16729e-19 20 	-1.88321e-18 	3.008e-18 20 	-1.88321e-18 	3.008e-18 20 	-1.88321e-18 	3.008e-18 20 	-1.88321e-18 	3.008e-18 20 	-1.36499e-18 	1.20156e-18 20 	-3.28597e-18 	1.19042e-18 20 	-3.28597e-18 	1.19042e-18 20 	-3.28597e-18 	1.19042e-18 20 	-3.28597e-18 	1.19042e-18 20 	-1.13687e-18 	7.32484e-19 20 	-1.55818e-18 	1.56867e-18 20 	-1.55818e-18 	1.56867e-18 20 	-1.55818e-18 	1.56867e-18 20 	-1.55818e-18 	1.56867e-18 20 	-9.64646e-19 	3.65159e-19 20 	-7.16137e-19 	1.35753e-18 20 	-7.16137e-19 	1.35753e-18 20 	-7.16137e-19 	1.35753e-18 20 	-7.16137e-19 	1.35753e-18 20 	-9.71579e-19 	8.97772e-20 20 	-2.02801e-18 	-5.72162e-19 20 	-2.02801e-18 	-5.72162e-19 20 	-2.02801e-18 	-5.72162e-19 20 	-2.02801e-18 	-5.72162e-19 20 	-8.29242e-19 	-3.92915e-19 20 	-6.42667e-19 	-5.10706e-19 20 	-6.42667e-19 	-5.10706e-19 20 	-6.42667e-19 	-5.10706e-19 20 	-6.42667e-19 	-5.10706e-19 20 	-7.27656e-19 	-4.92249e-19 20 	-2.59145e-18 	-9.29897e-19 20 	-2.59145e-18 	-9.29897e-19 20 	-2.59145e-18 	-9.29897e-19 20 	-2.59145e-18 	-9.29897e-19 20 	-1.33283e-18 	-1.99136e-19 20 	-3.75677e-18 	2.18884e-19 20 	-3.75677e-18 	2.18884e-19 20 	-3.75677e-18 	2.18884e-19 20 	-3.75677e-18 	2.18884e-19 20 	-1.7365e-18 	4.40508e-20 20 	-4.60071e-18 	5.67021e-19 20 	-4.60071e-18 	5.67021e-19 20 	-4.60071e-18 	5.67021e-19 20 	-4.60071e-18 	5.67021e-19 20 	-1.43112e-18 	4.29442e-19 20 	-4.56782e-18 	6.43296e-19 20 	-4.56782e-18 	6.43296e-19 20 	-4.56782e-18 	6.43296e-19 20 	-4.56782e-18 	6.43296e-19 20 	-1.16976e-18 	3.93959e-19 20 	-2.53867e-18 	-8.77467e-19 20 	-2.53867e-18 	-8.77467e-19 20 	-2.53867e-18 	-8.77467e-19 20 	-2.53867e-18 	-8.77467e-19 20 	-1.00265e-18 	-5.32248e-19 20 	-1.68548e-18 	-3.11054e-18 20 	-1.68548e-18 	-3.11054e-18 20 	-1.68548e-18 	-3.11054e-18 20 	-1.68548e-18 	-3.11054e-18 20 	-1.15586e-18 	-1.52975e-18 20 	-7.90391e-19 	-3.7011e-18 20 	-7.90391e-19 	-3.7011e-18 20 	-7.90391e-19 	-3.7011e-18 20 	-7.90391e-19 	-3.7011e-18 20 	-1.55572e-18 	-1.66524e-18 20 	-1.65847e-18 	-2.43903e-18 20 	-1.65847e-18 	-2.43903e-18 20 	-1.65847e-18 	-2.43903e-18 20 	-1.65847e-18 	-2.43903e-18 20 	-2.07116e-18 	-8.13974e-19 20 	-4.51723e-18 	3.0149e-19 20 	-4.51723e-18 	3.0149e-19 20 	-4.51723e-18 	3.0149e-19 20 	-4.51723e-18 	3.0149e-19 20 	-2.41944e-18 	-1.8608e-19 20 	-2.9181e-16 	5.39537e-17 20 	-5.80913e-16 	1.07402e-16 20 	-8.70016e-16 	1.6085e-16 20 	-1.15912e-15 	2.14298e-16 20 	-1.40111e-15 	2.42669e-16
20 	-8.06992e-17 	2.95095e-17 20 	-8.04832e-17 	2.96327e-17 20 	-8.02672e-17 	2.97558e-17 20 	-8.00511e-17 	2.9879e-17 20 	-7.98351e-17 	3.00021e-17 20 	-7.96191e-17 	3.01253e-17 20 	-9.02309e-17 	1.40803e-16 20 	-9.02309e-17 	1.40803e-16 20 	-9.02309e-17 	1.40803e-16 20 	-9.02309e-17 	1.40803e-16 20 	-6.66757e-17 	5.86923e-17 20 	-1.53219e-16 	5.65949e-17 20 	-1.53219e-16 	5.65949e-17 20 	-1.53219e-16 	5.65949e-17 20 	-1.53219e-16 	5.65949e-17 20 	-5.55326e-17 	3.57796e-17 20 	-7.40986e-17 	7.25421e-17 20 	-7.40986e-17 	7.25421e-17 20 	-7.40986e-17 	7.25421e-17 20 	-7.40986e-17 	7.25421e-17 20 	-4.71199e-17 	1.78369e-17 20 	-3.58476e-17 	6.20104e-17 20 	-3.58476e-17 	6.20104e-17 20 	-3.58476e-17 	6.20104e-17 20 	-3.58476e-17 	6.20104e-17 20 	-4.74586e-17 	4.38534e-18 20 	-9.49955e-17 	-2.73402e-17 20 	-9.49955e-17 	-2.73402e-17 20 	-9.49955e-17 	-2.73402e-17 20 	-9.49955e-17 	-2.73402e-17 20 	-4.05059e-17 	-1.91927e-17 20 	-3.16806e-17 	-2.48838e-17 20 	-3.16806e-17 	-2.48838e-17 20 	-3.16806e-17 	-2.48838e-17 20 	-3.16806e-17 	-2.48838e-17 20 	-3.55437e-17 	-2.40448e-17 20 	-1.22315e-16 	-4.29436e-17 20 	-1.22315e-16 	-4.29436e-17 20 	-1.22315e-16 	-4.29436e-17 20 	-1.22315e-16 	-4.29436e-17 20 	-6.51045e-17 	-9.72719e-18 20 	-1.76653e-16 	1.00987e-17 20 	-1.76653e-16 	1.00987e-17 20 	-1.76653e-16 	1.00987e-17 20 	-1.76653e-16 	1.00987e-17 20 	-8.48226e-17 	2.15175e-18 20 	-2.13978e-16 	2.72305e-17 20 	-2.13978e-16 	2.72305e-17 20 	-2.13978e-16 	2.72305e-17 20 	-2.13978e-16 	2.72305e-17 20 	-6.9906e-17 	2.09769e-17 20 	-2.11596e-16 	3.05772e-17 20 	-2.11596e-16 	3.05772e-17 20 	-2.11596e-16 	3.05772e-17 20 	-2.11596e-16 	3.05772e-17 20 	-5.71393e-17 	1.92437e-17 20 	-1.18795e-16 	-4.16905e-17 20 	-1.18795e-16 	-4.16905e-17 20 	-1.18795e-16 	-4.16905e-17 20 	-1.18795e-16 	-4.16905e-17 20 	-4.89763e-17 	-2.59986e-17 20 	-8.05336e-17 	-1.46578e-16 20 	-8.05336e-17 	-1.46578e-16 20 	-8.05336e-17 	-1.46578e-16 20 	-8.05336e-17 	-1.46578e-16 20 	-5.64601e-17 	-7.47237e-17 20 	-4.12044e-17 	-1.73881e-16 20 	-4.12044e-17 	-1.73881e-16 20 	-4.12044e-17 	-1.73881e-16 20 	-4.12044e-17 	-1.73881e-16 20 	-7.59922e-17 	-8.13416e-17 20 	-8.2411e-17 	-1.13626e-16 20 	-8.2411e-17 	-1.13626e-16 20 	-8.2411e-17 	-1.13626e-16 20 	-8.2411e-17 	-1.13626e-16 20 	-1.0117e-16 	-3.97601e-17 20 	-2.13536e-16 	1.30728e-17 20 	-2.13536e-16 	1.30728e-17 20 	-2.13536e-16 	1.30728e-17 20 	-2.13536e-16 	1.30728e-17 20 	-1.18182e-16 	-9.08942e-18 20 	-4.14972e-16 	7.50626e-17 20 	-7.04075e-16 	1.28511e-16 20 	-9.93178e-16 	1.81958e-16 20 	-1.28228e-15 	2.35406e-16 20 	-1.4411e-15 	2.23276e-16
20 	-1.58688e-16 	5.90181e-17 20 	-1.58472e-16 	5.91412e-17 20 	-1.58256e-16 	5.92644e-17 20 	-1.5804e-16 	5.93875e-17 20 	-1.57824e-16 	5.95107e-17 20 	-1.57608e-16 	5.96338e-17 20 	-1.55542e-16 	1.98294e-16 20 	-1.55542e-16 	1.98294e-16 20 	-1.55542e-16 	1.98294e-16 20 	-1.55542e-16 	1.98294e-16 20 	-1.31986e-16 	1.16183e-16 20 	-2.07615e-16 	9.1642e-17 20 	-2.07615e-16 	9.1642e-17 20 	-2.07615e-16 	9.1642e-17 20 	-2.07615e-16 	9.1642e-17 20 	-1.09928e-16 	7.08266e-17 20 	-1.20254e-16 	9.00138e-17 20 	-1.20254e-16 	9.00138e-17 20 	-1.20254e-16 	9.00138e-17 20 	-1.20254e-16 	9.00138e-17 20 	-9.32753e-17 	3.53086e-17 20 	-8.23347e-17 	6.63059e-17 20 	-8.23347e-17 	6.63059e-17 20 	-8.23347e-17 	6.63059e-17 20 	-8.23347e-17 	6.63059e-17 20 	-9.39457e-17 	8.6809e-18 20 	-1.34672e-16 	-4.614e-17 20 	-1.34672e-16 	-4.614e-17 20 	-1.34672e-16 	-4.614e-17 20 	-1.34672e-16 	-4.614e-17 20 	-8.01825e-17 	-3.79924e-17 20 	-6.64967e-17 	-4.84363e-17 20 	-6.64967e-17 	-4.84363e-17 20 	-6.64967e-17 	-4.84363e-17 20 	-6.64967e-17 	-4.84363e-17 20 	-7.03598e-17 	-4.75974e-17 20 	-1.86086e-16 	-5.24716e-17 20 	-1.86086e-16 	-5.24716e-17 20 	-1.86086e-16 	-5.24716e-17 20 	-1.86086e-16 	-5.24716e-17 20 	-1.28876e-16 	-1.92552e-17 20 	-2.59739e-16 	1.22064e-17 20 	-2.59739e-16 	1.22064e-17 20 	-2.59739e-16 	1.22064e-17 20 	-2.59739e-16 	1.22064e-17 20 	-1.67909e-16 	4.25944e-18 20 	-2.82453e-16 	4.7778e-17 20 	-2.82453e-16 	4.7778e-17 20 	-2.82453e-16 	4.7778e-17 20 	-2.82453e-16 	4.7778e-17 20 	-1.38381e-16 	4.15244e-17 20 	-2.67566e-16 	4.94269e-17 20 	-2.67566e-16 	4.94269e-17 20 	-2.67566e-16 	4.94269e-17 20 	-2.67566e-16 	4.94269e-17 20 	-1.13109e-16 	3.80934e-17 20 	-1.66769e-16 	-6.71568e-17 20 	-1.66769e-16 	-6.71568e-17 20 	-1.66769e-16 	-6.71568e-17 20 	-1.66769e-16 	-6.71568e-17 20 	-9.695e-17 	-5.1465e-17 20 	-1.35838e-16 	-2.19772e-16 20 	-1.35838e-16 	-2.19772e-16 20 	-1.35838e-16 	-2.19772e-16 20 	-1.35838e-16 	-2.19772e-16 20 	-1.11764e-16 	-1.47918e-16 20 	-1.15641e-16 	-2.53557e-16 20 	-1.15641e-16 	-2.53557e-16 20 	-1.15641e-16 	-2.53557e-16 20 	-1.15641e-16 	-2.53557e-16 20 	-1.50429e-16 	-1.61018e-16 20 	-1.8151e-16 	-1.52572e-16 20 	-1.8151e-16 	-1.52572e-16 20 	-1.8151e-16 	-1.52572e-16 20 	-1.8151e-16 	-1.52572e-16 20 	-2.00269e-16 	-7.87062e-17 20 	-3.29299e-16 	4.16949e-18 20 	-3.29299e-16 	4.16949e-18 20 	-3.29299e-16 	4.16949e-18 20 	-3.29299e-16 	4.16949e-18 20 	-2.33945e-16 	-1.79928e-17 20 	-4.5496e-16 	5.56691e-17 20 	-7.44063e-16 	1.09117e-16 20 	-1.03317e-15 	1.62565e-16 20 	-1.32227e-15 	2.16013e-16 20 	-1.48109e-15 	2.03882e-16
20 	-2.36677e-16 	8.85266e-17 20 	-2.36461e-16 	8.86498e-17 20 	-2.36245e-16 	8.87729e-17 20 	-2.36029e-16 	8.88961e-17 20 	-2.35813e-16 	8.90192e-17 20 	-2.35597e-16 	8.91424e-17 20 	-2.20852e-16 	2.55785e-16 20 	-2.20852e-16 	2.55785e-16 20 	-2.20852e-16 	2.55785e-16 20 	-2.20852e-16 	2.55785e-16 20 	-1.97297e-16 	1.73674e-16 20 	-2.6201e-16 	1.26689e-16 20 	-2.6201e-16 	1.26689e-16 20 	-2.6201e-16 	1.26689e-16 20 	-2.6201e-16 	1.26689e-16 20 	-1.64324e-16 	1.05874e-16 20 	-1.66409e-16 	1.07486e-16 20 	-1.66409e-16 	1.07486e-16 20 	-1.66409e-16 	1.07486e-16 20 	-1.66409e-16 	1.07486e-16 20 	-1.39431e-16 	5.27803e-17 20 	-1.28822e-16 	7.06015e-17 20 	-1.28822e-16 	7.06015e-17 20 	-1.28822e-16 	7.06015e-17 20 	-1.28822e-16 	7.06015e-17 20 	-1.40433e-16 	1.29765e-17 20 	-1.74349e-16 	-6.49398e-17 20 	-1.74349e-16 	-6.49398e-17 20 	-1.74349e-16 	-6.49398e-17 20 	-1.74349e-16 	-6.49398e-17 20 	-1.19859e-16 	-5.67922e-17 20 	-1.01313e-16 	-7.19889e-17 20 	-1.01313e-16 	-7.19889e-17 20 	-1.01313e-16 	-7.19889e-17 20 	-1.01313e-16 	-7.19889e-17 20 	-1.05176e-16 	-7.115e-17 20 	-2.49858e-16 	-6.19997e-17 20 	-2.49858e-16 	-6.19997e-17 20 	-2.49858e-16 	-6.19997e-17 20 	-2.49858e-16 	-6.19997e-17 20 	-1.92648e-16 	-2.87833e-17 20 	-3.42825e-16 	1.43141e-17 20 	-3.42825e-16 	1.43141e-17 20 	-3.42825e-16 	1.43141e-17 20 	-3.42825e-16 	1.43141e-17 20 	-2.50995e-16 	6.36714e-18 20 	-3.50928e-16 	6.83254e-17 20 	-3.50928e-16 	6.83254e-17 20 	-3.50928e-16 	6.83254e-17 20 	-3.50928e-16 	6.83254e-17 20 	-2.06856e-16 	6.20719e-17 20 	-3.23535e-16 	6.82766e-17 20 	-3.23535e-16 	6.82766e-17 20 	-3.23535e-16 	6.82766e-17 20 	-3.23535e-16 	6.82766e-17 20 	-1.69079e-16 	5.69431e-17 20 	-2.14743e-16 	-9.26232e-17 20 	-2.14743e-16 	-9.26232e-17 20 	-2.14743e-16 	-9.26232e-17 20 	-2.14743e-16 	-9.26232e-17 20 	-1.44924e-16 	-7.69314e-17 20 	-1.91142e-16 	-2.92966e-16 20 	-1.91142e-16 	-2.92966e-16 20 	-1.91142e-16 	-2.92966e-16 20 	-1.91142e-16 	-2.92966e-16 20 	-1.67069e-16 	-2.21112e-16 20 	-1.90077e-16 	-3.33234e-16 20 	-1.90077e-16 	-3.33234e-16 20 	-1.90077e-16 	-3.33234e-16 20 	-1.90077e-16 	-3.33234e-16 20 	-2.24865e-16 	-2.40694e-16 20 	-2.80609e-16 	-1.91518e-16 20 	-2.80609e-16 	-1.91518e-16 20 	-2.80609e-16 	-1.91518e-16 20 	-2.80609e-16 	-1.91518e-16 20 	-2.99368e-16 	-1.17652e-16 20 	-4.45062e-16 	-4.73385e-18 20 	-4.45062e-16 	-4.73385e-18 20 	-4.45062e-16 	-4.73385e-18 20 	-4.45062e-16 	-4.73385e-18 20 	-3.49707e-16 	-2.68961e-17 20 	-4.94948e-16 	3.62756e-17 20 	-7.84051e-16 	8.97236e-17 20 	-1.07315e-15 	1.43172e-16 20 	-1.36226e-15 	1.96619e-16 20 	-1.52107e-15 	1.84489e-16
20 	-3.14667e-16 	1.18035e-16 20 	-3.14451e-16 	1.18158e-16 20 	-3.14235e-16 	1.18281e-16 20 	-3.14018e-16 	1.18405e-16 20 	-3.13802e-16 	1.18528e-16 20 	-3.13586e-16 	1.18651e-16 20 	-2.88964e-16 	3.07094e-16 20 	-2.86163e-16 	3.13275e-16 20 	-2.86163e-16 	3.13275e-16 20 	-2.86163e-16 	3.13275e-16 20 	-2.62608e-16 	2.31164e-16 20 	-3.18817e-16 	1.66694e-16 20 	-3.16406e-16 	1.61736e-16 20 	-3.16406e-16 	1.61736e-16 20 	-3.16406e-16 	1.61736e-16 20 	-2.1872e-16 	1.40921e-16 20 	-2.14385e-16 	1.2884e-16 20 	-2.12564e-16 	1.24957e-16 20 	-2.12564e-16 	1.24957e-16 20 	-2.12564e-16 	1.24957e-16 20 	-1.85586e-16 	7.0252e-17 20 	-1.75235e-16 	7.78077e-17 20 	-1.75309e-16 	7.4897e-17 20 	-1.75309e-16 	7.4897e-17 20 	-1.75309e-16 	7.4897e-17 20 	-1.8692e-16 	1.7272e-17 20 	-2.1553e-16 	-7.86378e-17 20 	-2.14025e-16 	-8.37395e-17 20 	-2.14025e-16 	-8.37395e-17 20 	-2.14025e-16 	-8.37395e-17 20 	-1.59536e-16 	-7.55919e-17 20 	-1.37202e-16 	-9.44916e-17 20 	-1.36129e-16 	-9.55415e-17 20 	-1.36129e-16 	-9.55415e-17 20 	-1.36129e-16 	-9.55415e-17 20 	-1.39992e-16 	-9.47025e-17 20 	-3.07233e-16 	-7.46258e-17 20 	-3.1363e-16 	-7.15277e-17 20 	-3.1363e-16 	-7.15277e-17 20 	-3.1363e-16 	-7.15277e-17 20 	-2.56419e-16 	-3.83114e-17 20 	-4.21645e-16 	1.38515e-17 20 	-4.25911e-16 	1.64218e-17 20 	-4.25911e-16 	1.64218e-17 20 	-4.25911e-16 	1.64218e-17 20 	-3.34081e-16 	8.47483e-18 20 	-4.2263e-16 	8.47996e-17 20 	-4.19403e-16 	8.88729e-17 20 	-4.19403e-16 	8.88729e-17 20 	-4.19403e-16 	8.88729e-17 20 	-2.75331e-16 	8.26194e-17 20 	-3.82267e-16 	8.75014e-17 20 	-3.79505e-16 	8.71264e-17 20 	-3.79505e-16 	8.71264e-17 20 	-3.79505e-16 	8.71264e-17 20 	-2.25048e-16 	7.57929e-17 20 	-2.64483e-16 	-1.083e-16 20 	-2.62716e-16 	-1.1809e-16 20 	-2.62716e-16 	-1.1809e-16 20 	-2.62716e-16 	-1.1809e-16 20 	-1.92897e-16 	-1.02398e-16 20 	-2.44827e-16 	-3.55617e-16 20 	-2.46446e-16 	-3.6616e-16 20 	-2.46446e-16 	-3.6616e-16 20 	-2.46446e-16 	-3.6616e-16 20 	-2.22373e-16 	-2.94306e-16 20 	-2.60287e-16 	-4.11478e-16 20 	-2.64514e-16 	-4.1291e-16 20 	-2.64514e-16 	-4.1291e-16 20 	-2.64514e-16 	-4.1291e-16 20 	-2.99302e-16 	-3.20371e-16 20 	-3.74259e-16 	-2.39462e-16 20 	-3.79707e-16 	-2.30464e-16 20 	-3.79707e-16 	-2.30464e-16 20 	-3.79707e-16 	-2.30464e-16 20 	-3.98466e-16 	-1.56598e-16 20 	-5.57143e-16 	-2.02736e-17 20 	-5.60824e-16 	-1.36372e-17 20 	-5.60824e-16 	-1.36372e-17 20 	-5.60824e-16 	-1.36372e-17 20 	-4.6547e-16 	-3.57995e-17 20 	-5.51674e-16 	1.91994e-17 20 	-8.24039e-16 	7.03301e-17 20 	-1.11314e-15 	1.23778e-16 20 	-1.40224e-15 	1.77226e-16 20 	-1.56106e-15 	1.65095e-16
20 	-3.92656e-16 	1.47544e-16 20 	-3.9244e-16 	1.47667e-16 20 	-3.92224e-16 	1.4779e-16 20 	-3.92008e-16 	1.47913e-16 20 	-3.91792e-16 	1.48036e-16 20 	-3.91576e-16 	1.4816e-16 20 	-3.66953e-16 	3.36603e-16 20 	-3.51474e-16 	3.70766e-16 20 	-3.51474e-16 	3.70766e-16 20 	-3.51474e-16 	3.70766e-16 20 	-3.27918e-16 	2.88655e-16 20 	-3.84128e-16 	2.24185e-16 20 	-3.70802e-16 	1.96783e-16 20 	-3.70802e-16 	1.96783e-16 20 	-3.70802e-16 	1.96783e-16 20 	-2.73116e-16 	1.75968e-16 20 	-2.68781e-16 	1.63887e-16 20 	-2.5872e-16 	1.42429e-16 20 	-2.5872e-16 	1.42429e-16 20 	-2.5872e-16 	1.42429e-16 20 	-2.31741e-16 	8.77238e-17 20 	-2.21391e-16 	9.52794e-17 20 	-2.21796e-16 	7.91926e-17 20 	-2.21796e-16 	7.91926e-17 20 	-2.21796e-16 	7.91926e-17 20 	-2.33407e-16 	2.15676e-17 20 	-2.62017e-16 	-7.43422e-17 20 	-2.53702e-16 	-1.02539e-16 20 	-2.53702e-16 	-1.02539e-16 20 	-2.53702e-16 	-1.02539e-16 20 	-1.99212e-16 	-9.43917e-17 20 	-1.76879e-16 	-1.13291e-16 20 	-1.70945e-16 	-1.19094e-16 20 	-1.70945e-16 	-1.19094e-16 20 	-1.70945e-16 	-1.19094e-16 20 	-1.74808e-16 	-1.18255e-16 20 	-3.42049e-16 	-9.81783e-17 20 	-3.77401e-16 	-8.10558e-17 20 	-3.77401e-16 	-8.10558e-17 20 	-3.77401e-16 	-8.10558e-17 20 	-3.20191e-16 	-4.78394e-17 20 	-4.85416e-16 	4.32341e-18 20 	-5.08997e-16 	1.85295e-17 20 	-5.08997e-16 	1.85295e-17 20 	-5.08997e-16 	1.85295e-17 20 	-4.17167e-16 	1.05825e-17 20 	-5.05716e-16 	8.69073e-17 20 	-4.87878e-16 	1.0942e-16 20 	-4.87878e-16 	1.0942e-16 20 	-4.87878e-16 	1.0942e-16 20 	-3.43806e-16 	1.03167e-16 20 	-4.50742e-16 	1.08049e-16 20 	-4.35475e-16 	1.05976e-16 20 	-4.35475e-16 	1.05976e-16 20 	-4.35475e-16 	1.05976e-16 20 	-2.81018e-16 	9.46426e-17 20 	-3.20452e-16 	-8.94505e-17 20 	-3.1069e-16 	-1.43556e-16 20 	-3.1069e-16 	-1.43556e-16 20 	-3.1069e-16 	-1.43556e-16 20 	-2.40871e-16 	-1.27864e-16 20 	-2.92801e-16 	-3.81083e-16 20 	-3.01751e-16 	-4.39354e-16 20 	-3.01751e-16 	-4.39354e-16 20 	-3.01751e-16 	-4.39354e-16 20 	-2.77677e-16 	-3.675e-16 20 	-3.15592e-16 	-4.84672e-16 20 	-3.3895e-16 	-4.92586e-16 20 	-3.3895e-16 	-4.92586e-16 20 	-3.3895e-16 	-4.92586e-16 20 	-3.73738e-16 	-4.00047e-16 20 	-4.48696e-16 	-3.19138e-16 20 	-4.78806e-16 	-2.69411e-16 20 	-4.78806e-16 	-2.69411e-16 20 	-4.78806e-16 	-2.69411e-16 20 	-4.97565e-16 	-1.95545e-16 20 	-6.56242e-16 	-5.92198e-17 20 	-6.76587e-16 	-2.25405e-17 20 	-6.76587e-16 	-2.25405e-17 20 	-6.76587e-16 	-2.25405e-17 20 	-5.81233e-16 	-4.47028e-17 20 	-6.67437e-16 	1.0296e-17 20 	-8.64026e-16 	5.09366e-17 20 	-1.15313e-15 	1.04385e-16 20 	-1.44223e-15 	1.57833e-16 20 	-1.60105e-15 	1.45702e-16
20 	-4.70645e-16 	1.77052e-16 20 	-4.70429e-16 	1.77175e-16 20 	-4.70213e-16 	1.77299e-16 20 	-4.69997e-16 	1.77422e-16 20 	-4.69781e-16 	1.77545e-16 20 	-4.69565e-16 	1.77668e-16 20 	-4.44942e-16 	3.66111e-16 20 	-4.16784e-16 	4.28257e-16 20 	-4.16784e-16 	4.28257e-16 20 	-4.16784e-16 	4.28257e-16 20 	-3.93229e-16 	3.46146e-16 20 	-4.49439e-16 	2.81675e-16 20 	-4.25198e-16 	2.3183e-16 20 	-4.25198e-16 	2.3183e-16 20 	-4.25198e-16 	2.3183e-16 20 	-3.27511e-16 	2.11015e-16 20 	-3.23176e-16 	1.98934e-16 20 	-3.04875e-16 	1.59901e-16 20 	-3.04875e-16 	1.59901e-16 20 	-3.04875e-16 	1.59901e-16 20 	-2.77896e-16 	1.05195e-16 20 	-2.67546e-16 	1.12751e-16 20 	-2.68283e-16 	8.34882e-17 20 	-2.68283e-16 	8.34882e-17 20 	-2.68283e-16 	8.34882e-17 20 	-2.79894e-16 	2.58631e-17 20 	-3.08504e-16 	-7.00466e-17 20 	-2.93379e-16 	-1.21339e-16 20 	-2.93379e-16 	-1.21339e-16 20 	-2.93379e-16 	-1.21339e-16 20 	-2.38889e-16 	-1.13191e-16 20 	-2.16556e-16 	-1.32091e-16 20 	-2.05761e-16 	-1.42647e-16 20 	-2.05761e-16 	-1.42647e-16 20 	-2.05761e-16 	-1.42647e-16 20 	-2.09624e-16 	-1.41808e-16 20 	-3.76866e-16 	-1.21731e-16 20 	-4.41173e-16 	-9.05839e-17 20 	-4.41173e-16 	-9.05839e-17 20 	-4.41173e-16 	-9.05839e-17 20 	-3.83963e-16 	-5.73675e-17 20 	-5.49188e-16 	-5.20464e-18 20 	-5.92083e-16 	2.06372e-17 20 	-5.92083e-16 	2.06372e-17 20 	-5.92083e-16 	2.06372e-17 20 	-5.00253e-16 	1.26902e-17 20 	-5.88802e-16 	8.9015e-17 20 	-5.56353e-16 	1.29968e-16 20 	-5.56353e-16 	1.29968e-16 20 	-5.56353e-16 	1.29968e-16 20 	-4.1228e-16 	1.23714e-16 20 	-5.19217e-16 	1.28596e-16 20 	-4.91444e-16 	1.24826e-16 20 	-4.91444e-16 	1.24826e-16 20 	-4.91444e-16 	1.24826e-16 20 	-3.36987e-16 	1.13492e-16 20 	-3.76422e-16 	-7.06007e-17 20 	-3.58664e-16 	-1.69022e-16 20 	-3.58664e-16 	-1.69022e-16 20 	-3.58664e-16 	-1.69022e-16 20 	-2.88845e-16 	-1.53331e-16 20 	-3.40774e-16 	-4.06549e-16 20 	-3.57055e-16 	-5.12548e-16 20 	-3.57055e-16 	-5.12548e-16 20 	-3.57055e-16 	-5.12548e-16 20 	-3.32981e-16 	-4.40694e-16 20 	-3.70896e-16 	-5.57866e-16 20 	-4.13387e-16 	-5.72263e-16 20 	-4.13387e-16 	-5.72263e-16 20 	-4.13387e-16 	-5.72263e-16 20 	-4.48174e-16 	-4.79724e-16 20 	-5.23132e-16 	-3.98815e-16 20 	-5.77905e-16 	-3.08357e-16 20 	-5.77905e-16 	-3.08357e-16 20 	-5.77905e-16 	-3.08357e-16 20 	-5.96664e-16 	-2.34491e-16 20 	-7.55341e-16 	-9.81659e-17 20 	-7.9235e-16 	-3.14439e-17 20 	-7.9235e-16 	-3.14439e-17 20 	-7.9235e-16 	-3.14439e-17 20 	-6.96995e-16 	-5.36061e-17 20 	-7.832e-16 	1.3927e-18 20 	-9.04014e-16 	3.15431e-17 20 	-1.19312e-15 	8.49911e-17 20 	-1.48222e-15 	1.38439e-16 20 	-1.64104e-15 	1.26308e-16