/*--------------------------------*- C++ -*----------------------------------*\
| =========                 |                                                 |
| \\      /  F ield         | OpenFOAM: The Open Source CFD Toolbox           |
|  \\    /   O peration     | Version:  4.1                                   |
|   \\  /    A nd           | Web:      www.OpenFOAM.org                      |
|    \\/     M anipulation  |                                                 |
\*---------------------------------------------------------------------------*/
FoamFile
{
    version     2.0;
    format      ascii;
    class       surfaceScalarField;
    location    "590";
    object      phi;
}
// * * * * * * * * * * * * * * * * * * * * * * * * * * * * * * * * * * * * * //

dimensions      [0 3 -1 0 0 0 0];

internalField   nonuniform List<scalar> 
2700
(
-4.40529e-13
-4.83169e-13
-2.31653e-13
-3.01655e-13
-1.13687e-13
-8.46564e-14
-1.20141e-13
-2.84217e-14
-3.73534e-14
-1.07233e-13
0
-1.60371e-14
-3.48754e-14
-2.3507e-15
1.21751e-15
6.45368e-15
-1.53862e-14
7.10543e-15
-3.48754e-14
-3.07724e-14
-7.10543e-15
-5.68434e-14
-1.53862e-14
-1.21751e-15
-1.42179e-14
0
1.42109e-14
0
2.13163e-14
-8.76158e-14
-2.22843e-13
-8.52651e-14
-1.27022e-13
-1.41232e-13
-4.05361e-14
-8.35128e-14
-8.35128e-14
-1.77636e-14
-7.10543e-14
-5.59673e-14
-7.7457e-15
-2.75456e-14
-2.75456e-14
-6.40272e-16
-1.5087e-14
-2.84217e-14
2.27217e-15
-1.33347e-14
-4.17564e-14
-4.19299e-15
-8.76145e-16
-2.92979e-14
4.36866e-15
2.3507e-15
-1.59631e-14
7.10543e-15
-3.94057e-14
6.49667e-15
-5.68434e-14
-1.48562e-13
-2.84217e-14
-8.35128e-14
-8.35128e-14
-2.42287e-14
-5.59673e-14
-5.59673e-14
-7.10543e-15
-4.26326e-14
-2.92979e-14
-2.09649e-15
-2.84217e-14
-5.68434e-14
8.15949e-16
-2.84217e-14
-1.42109e-14
4.36866e-15
-1.5087e-14
-1.5087e-14
5.00893e-15
-1.75229e-15
0
-6.40272e-16
-1.30355e-14
-1.5087e-14
4.19299e-15
-1.74377e-14
0
-2.84217e-14
-8.07348e-14
-6.49667e-15
-5.59673e-14
-7.01781e-14
-8.15949e-16
-2.92979e-14
-2.92979e-14
0
-7.01781e-14
-2.84217e-14
5.64921e-15
0
1.33347e-14
7.92138e-15
-1.5087e-14
-4.35087e-14
4.36866e-15
0
-3.0174e-14
2.91244e-15
-2.62844e-15
-1.42109e-14
-2.73677e-15
-1.53862e-14
-4.00041e-14
3.55271e-15
-6.32971e-14
6.49667e-15
-2.6071e-14
-7.88114e-14
5.27917e-15
-2.92979e-14
-5.77196e-14
7.10543e-15
-2.84217e-14
-4.1475e-14
5.64921e-15
-1.42109e-14
-5.68434e-14
2.09649e-15
-5.68434e-14
-4.55417e-14
-6.40272e-16
-1.75229e-15
-1.75158e-15
7.92138e-15
-1.24586e-14
-1.70438e-14
3.55271e-15
-2.84217e-14
-1.8574e-14
7.92138e-15
-2.84217e-14
-2.84217e-14
7.2811e-15
-2.16547e-14
1.23846e-14
-1.30355e-14
-3.2952e-14
6.49667e-15
-1.42109e-14
-4.26326e-14
0
-2.84217e-14
-2.84217e-14
7.10543e-15
-1.59631e-14
-5.59673e-14
6.46516e-15
0
-2.84217e-14
5.00893e-15
-1.42109e-14
-1.42109e-14
0
1.33347e-14
-1.5087e-14
0
-4.00041e-14
-4.17564e-14
-1.42109e-14
-5.68434e-14
-1.59631e-14
3.72839e-15
-2.1968e-14
1.11671e-14
-3.07724e-14
-5.23131e-14
8.93169e-15
0
-4.26326e-14
0
-5.59673e-14
-7.10543e-14
2.09649e-15
1.15824e-14
-1.77154e-14
1.21144e-14
0
-2.84217e-14
7.7457e-15
-1.5087e-14
-2.84217e-14
4.19299e-15
-1.33347e-14
-2.84217e-14
0
-1.42109e-14
-4.26326e-14
-2.09649e-15
-2.84217e-14
-2.66694e-14
1.45622e-15
0
5.27917e-15
-4.14572e-14
0
1.36021e-14
-2.84217e-14
-1.59631e-14
2.91244e-15
-2.62844e-15
-2.84217e-14
1.00179e-14
1.5087e-14
-1.15824e-14
7.10543e-15
0
0
5.00893e-15
-1.5087e-14
-2.84217e-14
0
-4.17564e-14
8.76145e-16
3.55271e-15
1.75229e-15
2.84217e-14
5.00893e-15
2.3507e-15
1.42109e-14
7.92138e-15
-2.84217e-14
1.36021e-14
-6.75282e-14
0
1.949e-14
-2.66694e-14
2.6071e-14
5.00893e-15
0
2.84217e-14
7.92138e-15
2.66694e-14
3.07724e-14
7.2811e-15
-2.84217e-14
0
5.00893e-15
1.42109e-14
2.84217e-14
5.00893e-15
-2.84217e-14
2.84217e-14
5.00893e-15
-1.24586e-14
2.84217e-14
5.82488e-15
-5.44927e-14
-5.44927e-14
1.75676e-16
0
5.27917e-15
-3.55307e-14
1.35243e-14
-5.68434e-14
5.88792e-15
-2.1968e-14
1.23846e-14
0
1.36021e-14
0
6.49667e-15
2.84217e-14
1.36021e-14
-5.68434e-14
-1.82626e-15
-1.13687e-13
-8.93169e-15
0
-1.82626e-15
-6.86524e-16
-6.90493e-14
-3.24317e-14
-7.17844e-14
-4.05396e-14
0
-2.84217e-14
-6.77126e-14
-5.01836e-15
-3.20163e-14
-4.47255e-14
-1.67279e-15
-1.06721e-14
-2.84217e-14
-2.50761e-14
2.7912e-17
-4.59742e-14
-2.34034e-14
7.13334e-15
-2.84217e-14
-2.84217e-14
1.06721e-14
1.75525e-14
0
1.07e-14
5.28334e-14
-2.84217e-14
1.07e-14
-4.46376e-14
0
-3.34401e-14
-7.31472e-14
-3.20163e-14
-4.26326e-14
-6.68762e-14
-1.77636e-14
-4.26326e-14
-5.26654e-14
-1.77636e-14
-4.26326e-14
-5.26654e-14
-1.65685e-14
-1.62999e-14
-2.84217e-14
-2.35762e-15
-2.63327e-14
-2.63327e-14
0
0
-3.84545e-14
8.30052e-15
-1.00328e-14
-4.26326e-14
8.30052e-15
3.34401e-14
-1.42109e-14
7.13799e-15
-8.52651e-14
-3.56667e-15
-6.0189e-14
-7.31472e-14
-1.42388e-14
-2.84217e-14
-3.63655e-14
0
-4.26326e-14
-4.05435e-14
0
-1.83889e-14
2.08903e-15
5.9429e-15
-2.84217e-14
-2.84217e-14
1.19509e-15
-2.42437e-14
-2.84217e-14
1.19509e-15
-1.83889e-14
-4.17805e-15
9.52818e-15
3.25998e-14
1.21218e-14
1.42109e-14
5.01836e-15
3.63655e-14
1.42434e-14
0
3.53876e-15
-3.17673e-14
-5.14088e-14
1.41829e-14
-3.25998e-14
-1.83889e-14
1.42109e-14
0
0
8.30052e-15
-3.46888e-14
-4.26326e-14
3.2564e-17
-1.42109e-14
-1.42109e-14
1.19509e-15
0
1.21218e-14
1.19509e-15
-3.05107e-14
0
-2.32506e-15
4.26326e-14
1.42109e-14
3.55271e-15
-2.84217e-14
-4.68106e-14
0
-5.68434e-14
3.53876e-15
-1.67279e-15
-5.68434e-14
2.4855e-14
-2.84217e-14
-7.31433e-14
7.10543e-15
-4.26326e-14
-4.47216e-14
4.74781e-15
-6.26708e-15
-6.26708e-15
8.33308e-15
1.21218e-14
-2.08903e-15
1.19509e-15
2.08903e-15
-2.63327e-14
0
-2.08903e-15
-4.26326e-14
-7.07286e-15
-1.83889e-14
-7.10543e-14
3.55271e-15
-3.17673e-14
-4.26326e-14
1.16253e-15
-9.12996e-15
7.10543e-15
-2.84217e-14
-3.38563e-14
2.4855e-14
0
-4.26326e-14
1.77636e-14
-1.83889e-14
-5.47544e-14
9.49561e-15
-2.08903e-15
-5.26654e-14
3.55271e-15
-2.63327e-14
-3.63655e-14
-7.10543e-15
-1.42109e-14
-2.42437e-14
-2.35762e-15
-1.62999e-14
1.21218e-14
1.19509e-15
1.00328e-14
0
9.49561e-15
0
-2.42437e-14
7.10543e-15
-2.84217e-14
7.10543e-15
-5.51706e-14
-2.29871e-14
2.4883e-14
2.08903e-15
-1.83889e-14
1.30483e-14
-1.62999e-14
-6.26708e-15
1.54059e-14
2.84217e-14
7.94378e-15
1.30809e-14
-2.84217e-14
-6.26708e-15
-1.12996e-15
7.94378e-15
-1.83889e-14
7.13799e-15
-2.84217e-14
0
0
-2.84217e-14
-2.84217e-14
1.06581e-14
3.34557e-15
0
1.42109e-14
1.75525e-14
1.42109e-14
-5.34978e-14
3.92909e-14
2.48271e-14
0
-2.08903e-15
1.41783e-14
-2.08903e-15
-1.62999e-14
7.10543e-15
0
-1.83889e-14
-1.16253e-15
-2.63327e-14
0
-1.16253e-15
2.63327e-14
-2.08903e-15
1.54059e-14
-4.26326e-14
0
0
0
6.47872e-14
7.10543e-15
2.84217e-14
1.00328e-14
3.55271e-15
-7.43959e-14
7.13334e-15
-5.51706e-14
-2.84217e-14
-7.13334e-15
-2.84217e-14
-1.67279e-15
5.91033e-15
1.00328e-14
2.84217e-14
0
1.83889e-14
5.34978e-14
-5.9429e-15
-2.84217e-14
0
-4.71524e-15
2.84217e-14
5.68434e-14
-1.16253e-15
7.94378e-15
3.34557e-15
-4.71524e-15
-4.05435e-14
-3.00945e-14
-1.06581e-14
-2.84217e-14
-2.84217e-14
7.10543e-15
0
1.41829e-14
-5.68434e-14
0
5.4346e-15
1.41829e-14
2.84217e-14
0
-2.84217e-14
-1.42109e-14
2.84217e-14
-7.10543e-15
-1.75525e-14
-7.07752e-15
-2.84217e-14
-7.10543e-15
-5.68434e-14
7.10543e-15
0
2.12884e-14
1.27507e-14
0
5.68434e-14
-7.29832e-15
-2.84217e-14
2.84217e-14
-1.1579e-14
0
0
2.63185e-15
-2.84217e-14
-1.10474e-14
7.98271e-15
2.84217e-14
-1.10474e-14
1.50881e-14
-5.32295e-15
-3.94692e-14
1.24563e-14
-1.06459e-14
-2.84217e-14
1.33336e-14
1.06459e-14
-6.32682e-15
1.24563e-14
-3.34029e-14
-5.68434e-14
7.10543e-15
-2.84217e-14
6.91254e-15
-2.84217e-14
-4.61975e-14
-1.33336e-14
-5.68434e-14
-3.75104e-14
-2.02392e-14
-3.09828e-14
-9.08868e-15
1.07708e-15
0
2.56109e-15
1.06581e-14
0
0
1.28123e-14
0
-2.84217e-14
1.77636e-14
0
-1.9333e-14
1.28123e-14
-2.84217e-14
-4.00715e-14
1.06581e-14
1.10474e-14
0
1.6365e-14
-2.84217e-14
2.21936e-14
-2.84217e-14
-1.24529e-14
1.75456e-15
-2.84217e-14
-2.07384e-14
-3.21483e-16
-1.9333e-14
-1.42109e-14
3.23123e-15
-2.56109e-15
-2.84217e-14
8.1825e-15
-1.42109e-14
-2.84217e-14
7.10543e-15
9.08868e-15
-2.84217e-14
1.66865e-14
-3.49493e-14
-4.51937e-14
4.95127e-15
1.16498e-14
-1.67719e-14
1.77636e-14
-1.73743e-14
0
1.28123e-14
0
2.21936e-14
-2.84217e-14
1.77758e-14
1.59654e-14
-2.18941e-14
-1.9333e-14
1.03367e-14
-1.9333e-14
-2.84217e-14
5.70687e-15
-1.67719e-14
-1.67719e-14
3.55271e-15
-2.84217e-14
-2.84217e-14
9.58106e-15
-7.68327e-15
0
2.37919e-14
-6.52759e-15
-2.58606e-14
3.8742e-15
2.84217e-14
1.42109e-14
7.10543e-15
-1.73743e-14
-2.84217e-14
-1.39856e-15
-3.37447e-14
9.73727e-15
-5.68434e-14
-5.68434e-14
0
-3.09828e-14
-1.67719e-14
4.62979e-15
-7.68327e-15
9.08868e-15
1.06581e-14
-2.84217e-14
-2.58606e-14
-1.07708e-15
0
-1.42109e-14
1.31338e-14
-1.9333e-14
-4.26326e-14
6.02835e-15
3.35439e-14
-3.75104e-14
3.8742e-15
-2.84217e-14
-4.77547e-14
0
-2.84217e-14
-1.9333e-14
7.10543e-15
1.77593e-14
1.59654e-14
-1.10474e-14
-3.37447e-14
2.63185e-15
-1.9333e-14
-6.19656e-14
-1.39856e-15
-2.84217e-14
-5.17212e-14
-7.10543e-15
-3.09828e-14
-2.18941e-14
-7.10543e-15
-2.84217e-14
-1.9333e-14
0
0
0
3.55271e-15
2.32995e-14
0
5.70687e-15
0
-9.08868e-15
0
0
-2.32995e-14
7.42691e-15
0
5.35086e-15
-2.20949e-14
-4.08746e-14
-9.82444e-15
-9.08868e-15
-6.52759e-15
-3.21483e-16
1.56163e-14
-5.12218e-15
6.78394e-15
-2.84217e-14
-2.84217e-14
-1.06581e-14
-9.08868e-15
0
-9.25958e-15
0
2.84217e-14
0
2.84217e-14
0
-1.39856e-15
-1.42109e-14
-4.26326e-14
7.10543e-15
3.47485e-14
-2.84217e-14
1.06581e-14
-2.84217e-14
1.24563e-14
-2.20949e-14
-1.59689e-14
7.01826e-15
-2.18941e-14
-2.18941e-14
-6.42967e-16
-7.68327e-15
-3.09828e-14
4.62979e-15
0
-3.75104e-14
-2.15415e-15
1.9333e-14
-2.84217e-14
-5.70687e-15
-1.42109e-14
-3.35439e-14
-4.95127e-15
-1.42109e-14
-5.12218e-15
-1.39856e-15
0
2.07384e-14
1.28123e-14
3.47485e-14
2.32995e-14
9.25958e-15
-1.77758e-14
8.77282e-16
6.32682e-15
9.96229e-15
-9.82444e-15
-3.09828e-14
2.20949e-14
-7.42691e-15
0
0
7.10543e-15
9.08868e-15
0
7.10543e-15
0
-3.47485e-14
-7.10543e-15
0
2.84217e-14
-3.55271e-15
1.16498e-14
2.84217e-14
0
2.56109e-15
3.94692e-14
-7.10543e-15
-3.47485e-14
-6.32682e-15
0
0
1.59654e-14
-9.96229e-15
-1.44037e-14
-1.59689e-14
-4.47358e-15
-2.84217e-14
-5.35086e-15
0
8.85999e-15
4.61975e-14
2.0439e-14
0
-8.85999e-15
2.84217e-14
-7.10543e-15
-1.77758e-14
-7.10543e-15
-2.84217e-14
8.85999e-15
3.55271e-14
2.39346e-14
5.68434e-14
2.619e-14
2.84217e-14
-3.77298e-14
7.10543e-15
-2.46824e-14
-3.77298e-14
0
0
0
8.77454e-15
-8.60192e-15
3.77298e-14
3.48122e-15
-3.73929e-15
1.39621e-14
-1.9551e-15
-1.60805e-14
-1.44596e-14
-5.43631e-15
-2.84217e-14
-2.84217e-14
-2.32714e-14
-2.84217e-14
9.30806e-15
-1.6166e-14
2.84217e-14
-1.75584e-14
-2.84217e-14
-1.23412e-14
3.48122e-15
1.42109e-14
1.42109e-14
1.77636e-14
2.84217e-14
0
1.77636e-14
8.14455e-15
-1.42109e-14
5.47084e-15
2.02772e-14
-3.65663e-14
1.63459e-15
-6.0663e-15
-3.95994e-14
-5.18731e-15
-8.14455e-15
-3.65663e-14
-1.25763e-14
8.14455e-15
-2.53886e-14
-5.18731e-15
-9.30806e-15
-1.42109e-14
-9.69908e-15
-2.84217e-14
-3.62421e-15
4.65403e-15
-8.60192e-15
5.29332e-15
0
-5.1114e-15
1.06581e-14
0
-3.95994e-14
3.55271e-15
0
-2.53886e-14
7.10543e-15
1.7244e-14
-1.11777e-14
7.10543e-15
-1.7244e-14
0
9.59061e-16
3.03315e-15
-2.84217e-14
2.59365e-15
1.93223e-14
-4.56657e-14
-6.75531e-16
-9.30806e-15
-5.68434e-14
-1.42109e-14
-3.2161e-14
0
-2.37677e-14
-2.84217e-14
8.77454e-15
-2.02772e-14
-2.84217e-14
9.98261e-15
0
-8.14455e-15
1.51699e-14
1.42109e-14
-2.84217e-14
1.51699e-14
1.42109e-14
-2.84217e-14
8.06449e-15
-4.56657e-14
-7.10543e-14
0
-2.84217e-14
-3.95994e-14
7.78096e-15
8.14455e-15
0
9.02355e-15
0
-8.14455e-15
7.10543e-15
0
7.10543e-15
-2.37677e-14
-1.98198e-14
6.96244e-15
0
-6.0663e-15
9.98261e-15
-6.0663e-15
-4.86989e-14
1.25763e-14
2.84217e-14
-4.26326e-14
1.16172e-14
-1.42109e-14
-5.98766e-14
1.16172e-14
0
-4.56657e-14
1.51699e-14
-3.03315e-15
-3.75212e-14
1.51699e-14
0
-2.02772e-14
5.47084e-15
9.30806e-15
3.03315e-15
1.42109e-14
-1.62712e-14
1.07296e-14
-2.84217e-14
-7.66632e-14
0
-1.42109e-14
-2.33103e-14
7.10543e-15
-2.84217e-14
-1.7244e-14
3.55271e-15
1.11777e-14
5.1114e-15
1.51699e-14
0
-4.26326e-14
1.68045e-14
8.14455e-15
-2.84217e-14
1.06581e-14
1.42109e-14
-2.84217e-14
1.58454e-14
9.09946e-15
-2.23554e-14
1.13337e-14
4.65403e-15
-1.7244e-14
2.22753e-14
0
2.13163e-14
0
0
0
-8.14455e-15
-1.42109e-14
-3.55271e-15
-6.0663e-15
0
0
-3.65663e-14
-8.14455e-15
0
2.84217e-14
2.84217e-14
2.03572e-14
8.14455e-15
8.14455e-15
1.77636e-14
3.4488e-14
0
2.55445e-14
0
-2.02772e-14
2.55445e-14
0
-6.0663e-15
2.03572e-14
-4.82415e-14
2.13163e-14
-2.84217e-14
-5.68434e-14
0
6.0663e-15
-2.84217e-14
5.18731e-15
-1.42109e-14
-1.42109e-14
3.55271e-15
0
0
5.47084e-15
8.14455e-15
-6.0663e-15
1.25763e-14
0
-1.42109e-14
1.06581e-14
1.42109e-14
0
2.29509e-14
0
-1.7244e-14
1.77636e-14
4.65403e-15
0
1.93982e-14
-1.23412e-14
1.96472e-14
0
3.29089e-14
1.25417e-14
2.02772e-14
-9.30806e-15
7.78096e-15
0
-1.91137e-14
1.91812e-15
-6.0663e-15
9.30806e-15
1.25763e-14
0
1.44596e-14
2.4869e-14
2.84217e-14
1.91137e-14
2.29509e-14
1.11777e-14
0
1.77636e-14
1.7244e-14
2.37677e-14
2.03572e-14
0
0
8.06449e-15
4.48715e-15
1.23988e-14
-2.84217e-14
1.11586e-15
2.46824e-14
7.10543e-15
2.84217e-14
7.10543e-15
1.98198e-14
1.42109e-14
-1.60805e-14
1.588e-14
2.46824e-14
3.00908e-14
2.84217e-14
2.66096e-14
0
1.95042e-14
4.48715e-15
1.23988e-14
1.79687e-14
0
-2.84217e-14
-9.88931e-16
0
-1.22893e-14
1.89756e-15
1.58366e-15
1.61324e-14
6.39905e-15
-3.00054e-14
-2.03555e-14
-7.06379e-16
-2.84217e-14
1.61324e-14
0
0
0
2.60394e-15
4.75098e-15
-1.22893e-14
2.60394e-15
-2.84217e-14
-4.2231e-15
-1.49172e-14
-3.79068e-14
1.61324e-14
-7.06379e-16
3.789e-14
0
1.61324e-14
-3.1589e-14
-7.06379e-16
2.84217e-14
0
4.58229e-15
-7.01043e-15
-4.26326e-14
-2.52314e-15
-2.14113e-14
-3.56221e-14
-5.2348e-15
-7.01043e-15
-2.84217e-14
-5.42334e-15
-3.56221e-14
-2.14113e-14
8.41045e-16
2.14113e-14
3.50521e-15
6.07585e-15
2.49165e-14
-1.42109e-14
0
-4.87772e-14
-3.91273e-14
-7.94647e-15
-3.1589e-14
-1.16069e-14
2.84217e-14
-3.00054e-14
1.16069e-14
-1.42109e-14
-4.26326e-14
1.02958e-15
0
0
2.71167e-15
0
0
1.06581e-14
0
0
8.78752e-15
-2.49165e-14
-2.49165e-14
1.68209e-15
-2.47265e-14
-2.14113e-14
-1.02958e-15
0
0
7.10543e-15
1.61324e-14
2.84217e-14
7.10543e-15
3.1589e-14
7.10543e-15
-8.0662e-15
-2.6838e-14
1.42109e-14
2.84217e-14
-2.84217e-14
1.69225e-14
0
-3.91273e-14
8.78752e-15
0
-4.26326e-14
1.42109e-14
-1.07056e-14
-1.42109e-14
1.42109e-14
-7.20042e-15
-3.50521e-15
1.86046e-14
1.08956e-14
1.79061e-14
1.48634e-14
2.84217e-14
0
1.25288e-14
0
-7.20042e-15
7.10543e-15
-3.16732e-15
7.10543e-15
0
-1.58366e-15
1.87123e-14
3.50521e-15
-2.49165e-14
1.77636e-14
-3.50521e-15
-4.26326e-14
9.62856e-15
2.84217e-14
-2.84217e-14
8.78752e-15
0
-3.91273e-14
1.06581e-14
0
-4.26326e-14
3.55271e-15
-7.01043e-15
0
7.10543e-15
7.01043e-15
1.05156e-14
1.25288e-14
2.84217e-14
2.84217e-14
1.23402e-14
0
1.42109e-14
0
-2.36707e-14
7.10543e-15
-1.42109e-14
-2.47265e-14
7.10543e-15
1.07056e-14
-3.19269e-14
6.07585e-15
1.77161e-14
-3.54321e-14
8.78752e-15
-3.50521e-15
-2.84217e-14
1.86046e-14
5.68434e-14
0
8.78752e-15
3.50521e-15
3.50521e-15
0
1.07056e-14
7.01043e-15
7.94647e-15
0
-2.49165e-14
0
0
1.16069e-14
-2.84217e-14
0
1.61084e-14
-2.14113e-14
7.01043e-15
5.42334e-15
2.14113e-14
1.42109e-14
5.2348e-15
1.05156e-14
0
7.10543e-15
2.49165e-14
3.69521e-15
1.86046e-14
4.61378e-14
7.20042e-15
1.06581e-14
7.01043e-15
-3.50521e-15
6.07585e-15
-7.01043e-15
1.08956e-14
1.13107e-14
2.03555e-14
-3.50521e-15
1.06581e-14
-2.84217e-14
1.16069e-14
-1.22893e-14
-6.15944e-14
0
0
-1.07056e-14
1.68209e-15
-7.01043e-15
-3.54321e-14
-1.02958e-15
1.42109e-14
1.42109e-14
1.14992e-14
1.42109e-14
4.26326e-14
1.77636e-14
3.54321e-14
7.01043e-15
8.97605e-15
2.14113e-14
-7.01043e-15
1.23402e-14
-7.20042e-15
0
0
0
-1.05156e-14
2.52314e-15
4.75098e-15
1.94187e-14
0
-2.84217e-14
1.49172e-14
-1.05156e-14
-3.64879e-14
1.50519e-14
4.26326e-14
0
1.42109e-14
4.26326e-14
2.84217e-14
1.77636e-14
-7.20042e-15
-2.84217e-14
1.06581e-14
2.14113e-14
3.26448e-14
1.58929e-14
2.84217e-14
2.03555e-14
1.42109e-14
-3.19269e-14
-8.0662e-15
8.41045e-16
0
0
0
0
7.10543e-15
-9.46829e-15
1.92774e-14
6.00107e-14
2.58178e-14
5.68434e-14
9.00298e-15
0
-4.50149e-15
3.00054e-14
7.10543e-15
2.84217e-14
1.16069e-14
0
1.16069e-14
-2.84217e-14
0
0
7.10543e-15
0
1.17287e-14
-5.68434e-14
-2.9618e-15
9.17389e-15
-2.29058e-14
0
-9.17389e-15
-4.36923e-14
-8.54518e-17
-1.83478e-14
-2.84217e-14
-1.43818e-14
-9.17389e-15
0
-1.404e-14
-2.84217e-14
0
-1.42109e-14
-1.92478e-14
0
-7.01998e-15
0
0
-7.19088e-15
-1.6693e-14
0
-8.54518e-17
0
-7.10543e-15
1.31512e-14
0
-7.36178e-15
0
-1.42109e-14
-1.38363e-15
2.27902e-15
6.2563e-15
7.16786e-15
-7.95456e-15
1.42109e-14
-4.93634e-15
2.44444e-14
2.84217e-14
-7.10543e-15
-2.84217e-14
-2.44444e-14
-7.10543e-15
-1.02336e-14
-2.44444e-14
-4.27574e-15
0
0
-4.93634e-15
-2.07864e-14
0
-4.93634e-15
-9.00047e-16
-1.43818e-14
-1.52705e-14
0
-7.36178e-15
2.04672e-14
3.4678e-14
-3.49028e-15
2.44444e-14
3.07007e-14
-4.93634e-15
-7.95456e-15
0
-1.20418e-14
-1.42109e-14
7.95456e-15
-3.55271e-15
-2.84217e-14
2.21654e-14
-2.82968e-15
2.84217e-14
1.42109e-14
5.65937e-15
0
7.95456e-15
0
-1.52705e-14
1.42109e-14
0
3.84956e-14
-1.70904e-16
2.84217e-14
-2.84217e-14
-7.19088e-15
1.64899e-14
-1.81881e-14
-1.34878e-14
7.95456e-15
-4.26326e-14
-1.21042e-14
0
-5.05871e-14
-2.10665e-15
0
-1.42109e-14
-2.10665e-15
-3.63763e-14
-5.68434e-14
-2.10665e-15
7.95456e-15
-2.04672e-14
0
2.04672e-14
0
0
0
0
-8.55149e-15
1.83478e-14
-2.13163e-14
3.6057e-14
-5.68434e-14
-8.54518e-17
-2.21654e-14
-8.12879e-14
-7.82846e-15
0
-5.68434e-14
-5.7218e-15
3.63763e-14
-2.84217e-14
0
-2.84217e-14
-2.84217e-14
7.10543e-15
0
-3.63763e-14
8.55149e-15
2.84217e-14
-2.84217e-14
8.55149e-15
2.04672e-14
-1.42109e-14
1.44606e-15
1.31512e-14
-4.88889e-14
-8.55149e-15
-1.08312e-14
-7.10543e-15
0
4.76695e-14
7.10543e-15
1.64899e-14
-1.81881e-14
3.55271e-15
1.42109e-14
-2.84217e-14
2.10665e-15
3.63763e-14
-2.84217e-14
3.55271e-15
-2.21654e-14
-2.84217e-14
1.44606e-15
-6.2563e-15
7.95456e-15
4.27574e-15
2.84217e-14
3.4678e-14
3.61515e-15
0
2.04672e-14
2.16909e-15
4.92081e-14
3.97728e-15
5.7218e-15
-2.84217e-14
-2.56355e-16
-5.68434e-14
-1.83478e-14
-1.70904e-16
-7.95456e-15
-7.95456e-15
1.44606e-15
2.84217e-14
1.02336e-14
2.10665e-15
3.63763e-14
3.86553e-14
4.93634e-15
0
4.88889e-14
4.99877e-15
3.4678e-14
1.42109e-14
-1.38363e-15
0
1.42109e-14
-6.3824e-15
-2.27902e-15
0
-8.48905e-15
0
-1.69826e-15
7.85463e-16
2.93218e-14
6.59272e-15
-2.84217e-14
-2.84217e-14
-7.10543e-15
1.02336e-14
7.95456e-15
0
4.26326e-14
1.81881e-14
7.76602e-15
3.2399e-14
3.2399e-14
-6.44483e-15
-2.04672e-14
2.84217e-14
-3.55271e-15
3.4678e-14
2.04672e-14
1.44606e-15
-2.84217e-14
0
-7.10543e-15
-1.81881e-14
1.02336e-14
-2.82968e-15
4.92081e-14
0
1.44606e-15
-9.17389e-15
-2.56355e-16
1.31512e-14
-2.34574e-14
1.43818e-14
2.04672e-14
2.07864e-14
1.34878e-14
7.10543e-14
-1.52705e-14
1.41484e-14
2.84217e-14
-4.92081e-14
-1.44606e-15
-1.42109e-14
-5.68434e-14
-4.99877e-15
2.84217e-14
2.84217e-14
-1.44606e-15
-3.97728e-15
0
-7.10543e-15
-2.84217e-14
0
0
2.84217e-14
2.84217e-14
0
-2.84217e-14
-1.43818e-14
7.35364e-14
2.84217e-14
-9.17389e-15
2.10599e-14
5.77435e-14
2.82508e-14
9.17389e-15
1.44672e-14
5.68434e-14
1.42109e-14
0
7.36178e-15
-9.17389e-15
7.27633e-15
0
8.54518e-17
-2.84217e-14
8.54518e-17
7.10543e-15
2.84217e-14
-4.78354e-14
1.87598e-14
0
-5.68434e-14
1.21909e-15
-3.98629e-14
-1.01699e-14
0
-1.69805e-14
-5.08496e-15
-2.77484e-15
2.54708e-14
1.82518e-14
-1.21909e-15
-8.49027e-15
2.84217e-14
-1.42109e-14
-1.99314e-14
0
-1.54299e-14
0
-1.01699e-14
-1.42109e-14
-2.84217e-14
1.82518e-14
-7.10543e-15
9.00797e-15
3.88477e-15
-1.82518e-14
0
1.38742e-14
4.79447e-14
-3.73204e-14
1.53435e-14
-3.28711e-14
-4.26326e-14
-1.42109e-14
4.44934e-15
0
-7.10543e-15
3.81832e-14
2.84217e-14
-1.00531e-14
-2.39724e-14
-1.42109e-14
-1.77636e-14
8.62831e-16
-1.9523e-14
-1.23958e-14
0
-8.62831e-16
-1.77636e-14
-2.84217e-14
-8.62831e-16
-8.31545e-15
2.95089e-15
1.21909e-15
-2.84217e-14
-1.69805e-14
1.54299e-14
2.84217e-14
-5.31217e-15
2.12389e-14
2.39724e-14
8.89868e-15
5.8954e-15
1.86602e-14
1.86602e-14
-7.71044e-15
9.76151e-15
0
-1.18682e-14
-1.50737e-14
4.44934e-15
-1.06581e-14
3.37339e-14
1.9523e-14
5.36775e-15
0
-1.9523e-14
-3.55271e-15
-2.84217e-14
-1.9523e-14
-6.50041e-15
0
0
0
0
1.57666e-14
2.84217e-14
4.44934e-15
1.36058e-14
4.79447e-14
-2.39724e-14
-2.34269e-15
0
-1.42109e-14
-1.77636e-14
0
-5.31217e-15
-7.10543e-15
0
0
-2.9477e-15
-1.9523e-14
0
0
0
1.9523e-14
4.76274e-15
-1.01699e-14
0
-1.73767e-15
-1.69805e-14
0
-2.33367e-14
-3.6912e-14
5.88634e-15
0
-1.42109e-14
2.42005e-15
5.77063e-14
9.76151e-15
7.71044e-15
2.31095e-14
0
-1.06581e-14
5.31217e-15
-2.31095e-14
-5.8954e-15
0
-1.86602e-14
-8.8431e-15
0
-2.75589e-14
6.05014e-16
-3.37339e-14
-1.86602e-14
-6.50041e-15
0
1.50737e-14
1.21003e-15
2.53748e-14
1.55575e-15
0
2.54708e-14
4.66725e-15
2.39724e-14
8.62831e-16
5.97277e-15
4.79447e-14
-2.84217e-14
7.10543e-15
0
-4.34954e-14
-1.36058e-14
-4.44934e-15
-2.84217e-14
-7.10543e-15
5.31217e-15
-1.42109e-14
-2.34269e-15
8.89868e-15
8.89868e-15
-9.44811e-15
2.84217e-14
5.31217e-15
7.10543e-15
5.08496e-15
-8.89868e-15
-7.10543e-15
2.54708e-14
-2.77484e-15
-2.84217e-14
-2.84217e-14
-1.21909e-15
-5.31217e-15
0
7.71044e-15
1.86602e-14
1.86602e-14
8.92047e-15
2.92845e-14
0
-1.13266e-15
9.76151e-15
2.84217e-14
0
2.84217e-14
1.86602e-14
7.10543e-15
5.31217e-15
3.28711e-14
4.76274e-15
2.84217e-14
2.31095e-14
7.10543e-15
0
2.84217e-14
-7.10543e-15
0
-1.97605e-14
0
3.98629e-14
1.26551e-14
2.75589e-14
2.75589e-14
9.44811e-15
0
3.73204e-14
5.97277e-15
4.34954e-14
3.81832e-14
5.97277e-15
0
2.31095e-14
0
2.84217e-14
-5.31217e-15
7.10543e-15
-4.44934e-15
0
6.05014e-16
1.9523e-14
2.84217e-14
1.21003e-15
0
-3.37339e-14
-7.10543e-15
-2.84217e-14
-1.97605e-14
5.08496e-15
0
1.57666e-14
2.31095e-14
1.31668e-14
1.12632e-14
1.50737e-14
3.14186e-14
1.07355e-14
1.42109e-14
2.84217e-14
1.21003e-15
-2.84217e-14
1.82518e-14
-1.73767e-15
1.9523e-14
6.19284e-14
1.54209e-14
2.39724e-14
3.85916e-14
7.71044e-15
-2.84217e-14
5.08496e-15
4.76274e-15
-1.01699e-14
3.35067e-14
4.76274e-15
4.78354e-14
7.10543e-15
3.74297e-14
1.35467e-14
2.84217e-14
1.26551e-14
3.98629e-14
5.54968e-15
4.54023e-14
-5.54968e-15
2.95089e-15
-7.10543e-15
8.49027e-15
4.33059e-15
-1.14412e-14
-1.21909e-15
0
-1.21909e-15
4.50399e-15
5.88634e-15
6.44131e-15
-2.84217e-14
-2.84217e-14
-7.53019e-15
-6.80183e-15
-1.06165e-14
1.10058e-15
-6.80183e-15
-7.18868e-15
-1.09285e-14
-2.84217e-14
-2.84217e-14
-1.6412e-15
0
-2.84217e-14
3.2824e-15
2.38872e-14
0
1.03878e-14
4.53455e-15
0
7.10543e-15
2.84217e-14
-7.18868e-15
2.13163e-14
2.72073e-15
0
3.06035e-14
0
2.13163e-14
-1.06165e-14
-4.53455e-15
9.84721e-15
-1.53176e-14
0
1.35801e-14
9.28945e-15
-4.36805e-15
2.57872e-15
-1.42109e-14
-9.28945e-15
2.09172e-15
2.84217e-14
1.47642e-14
6.61843e-15
4.36805e-15
0
4.52671e-15
0
9.84281e-15
3.55271e-15
2.40537e-14
1.47642e-14
1.67896e-14
1.78052e-14
0
1.72766e-14
-2.84217e-14
1.42109e-14
-3.42784e-15
-6.80183e-15
-5.40623e-16
-1.96856e-14
-2.89751e-14
1.56718e-14
4.36805e-15
-2.40537e-14
1.42109e-14
9.84281e-15
-1.42109e-14
-9.73996e-16
1.36575e-14
1.85789e-14
8.07942e-15
1.42109e-14
2.84217e-14
1.27499e-14
-9.28945e-15
4.9214e-15
6.61843e-15
9.28945e-15
0
1.11451e-14
-1.06165e-14
-2.84217e-14
3.55271e-15
0
1.42109e-14
-3.42784e-15
-2.26728e-15
-1.63927e-14
-1.47642e-14
-1.96856e-14
8.56642e-15
0
-4.36805e-15
3.55271e-15
4.26326e-14
0
7.10543e-15
9.28945e-15
0
-3.06572e-15
1.91323e-14
4.36805e-15
-4.03971e-15
-1.42109e-14
2.35003e-14
2.57872e-15
-4.9214e-15
9.28945e-15
7.10543e-15
1.78052e-14
1.91323e-14
1.42109e-14
0
1.42109e-14
0
-3.29563e-14
-1.09285e-14
1.47642e-14
0
-2.57872e-15
4.36805e-15
0
1.16321e-14
5.68434e-14
-4.9214e-15
7.59243e-15
1.36575e-14
-2.84217e-14
4.86998e-16
9.84281e-15
0
-1.21191e-14
-2.84217e-14
-1.96856e-14
-1.06581e-14
-2.35003e-14
1.42109e-14
-9.68415e-15
0
9.28945e-15
4.86998e-16
2.6132e-14
1.42109e-14
7.18868e-15
2.84217e-14
0
5.53358e-16
1.42109e-14
3.55271e-15
-5.53358e-16
2.78684e-14
1.21191e-14
3.33431e-14
0
1.37239e-14
4.20792e-14
0
3.55271e-15
4.36805e-15
-4.36805e-15
-4.52671e-15
1.96856e-14
2.40537e-14
-1.94799e-15
-2.84217e-14
1.85789e-14
-9.68415e-15
0
3.27898e-14
-2.57872e-15
4.77743e-14
3.2824e-15
-2.1233e-14
-1.70853e-14
-7.10543e-15
0
-1.36575e-14
-2.57872e-15
-2.84217e-14
0
4.52671e-15
3.33431e-14
1.42109e-14
1.01711e-14
3.77112e-14
2.84217e-14
1.32369e-14
3.27898e-14
1.91323e-14
1.01711e-14
1.42109e-14
9.84281e-15
-4.52671e-15
-2.84217e-14
0
-4.52671e-15
-7.18868e-15
2.84217e-14
0
0
-1.03878e-14
0
5.23089e-14
1.2029e-14
1.36575e-14
1.42109e-14
5.9877e-15
0
2.84217e-14
4.52671e-15
3.33431e-14
3.33431e-14
6.61843e-15
2.84217e-14
9.28945e-15
0
9.28945e-15
2.84217e-14
0
1.85789e-14
2.84217e-14
-7.10543e-15
0
2.84217e-14
-1.06581e-14
-3.56104e-14
0
0
3.29563e-14
-7.10543e-15
7.18868e-15
0
0
1.36575e-14
2.84217e-14
4.52671e-15
1.91323e-14
2.49939e-14
3.06572e-15
9.28945e-15
0
7.10543e-15
3.33431e-14
1.78052e-14
2.09172e-15
2.35003e-14
-2.1233e-14
0
3.27898e-14
-2.84217e-14
-3.55271e-15
-1.42109e-14
-2.84217e-14
-8.07942e-15
2.84217e-14
2.84217e-14
-1.46099e-15
0
-7.10543e-15
3.38632e-14
9.61549e-15
0
1.25697e-14
2.38872e-14
1.42109e-14
2.84217e-14
7.10543e-15
4.53455e-15
7.10543e-15
2.16199e-14
2.84217e-14
2.38872e-14
5.46423e-15
2.84217e-14
-3.2824e-15
0
-1.42109e-14
-1.42109e-14
-1.84763e-14
2.84217e-14
0
0
2.84217e-14
7.10543e-15
1.13687e-13
3.26291e-14
2.73193e-14
1.77689e-14
-5.2636e-14
0
0
-5.05323e-14
-1.65364e-15
2.84217e-14
0
6.003e-15
2.60496e-14
0
0
3.90745e-14
0
1.10243e-15
-1.98909e-14
2.42143e-14
-5.45179e-15
0
0
2.10372e-15
-2.84217e-14
-7.10543e-15
-3.18456e-14
-1.22413e-14
-1.06581e-14
1.42109e-14
1.42109e-14
9.74594e-15
3.42392e-15
-2.84217e-14
1.46189e-14
4.0663e-14
0
1.55311e-14
1.42109e-14
-1.45437e-15
9.12196e-16
1.07869e-14
-1.22413e-14
-9.12196e-16
1.96043e-14
-2.84217e-14
3.55271e-15
-2.84217e-14
-3.38152e-14
-7.10543e-15
-5.68434e-14
0
3.68366e-14
-2.60496e-14
-6.003e-15
-5.39347e-15
-1.61804e-14
4.08063e-16
-1.42109e-14
-1.07869e-14
7.51349e-15
3.18456e-14
3.42392e-15
2.52771e-14
3.92086e-14
-5.39347e-15
1.55311e-14
3.42392e-15
-3.92086e-14
4.08063e-16
8.81739e-15
-3.18456e-14
3.96078e-15
0
-2.30282e-14
7.10543e-15
2.10372e-15
0
7.10543e-15
0
7.10543e-15
3.47329e-14
2.84217e-14
1.31084e-14
0
-1.61804e-14
3.55271e-15
0
0
1.06581e-14
2.30282e-14
8.81739e-15
1.77636e-14
-8.81739e-15
0
1.42109e-14
1.07869e-14
0
8.42569e-15
3.42392e-15
-1.61804e-14
1.46189e-14
3.72391e-14
-1.61804e-14
8.42569e-15
2.10372e-15
-4.26326e-14
0
-2.84217e-14
0
0
2.84217e-14
6.003e-15
1.61804e-14
2.49978e-14
1.11623e-14
8.81739e-15
3.72391e-14
1.86758e-14
2.84217e-14
1.96043e-14
1.64433e-14
5.39347e-15
-8.81739e-15
1.06581e-14
8.81739e-15
2.30282e-14
1.19784e-14
3.42392e-15
5.68434e-14
1.06581e-14
-3.42392e-15
2.84217e-14
9.12196e-16
2.10372e-15
3.18456e-14
3.55271e-15
2.61266e-14
1.42109e-14
4.20744e-15
0
-1.10243e-15
2.84217e-14
3.42392e-15
1.42109e-14
-8.81739e-15
3.42392e-15
7.10543e-15
0
0
1.51231e-14
2.30282e-14
1.07869e-14
8.42569e-15
1.42109e-14
3.38152e-14
0
-1.07869e-14
0
0
0
3.92086e-14
-4.08063e-16
0
5.68434e-14
9.12196e-16
2.84217e-14
-1.10243e-15
0
-2.37206e-15
-1.10243e-15
2.84217e-14
0
-2.64052e-15
-1.22413e-14
0
-1.06581e-14
1.07869e-14
0
8.42569e-15
1.76348e-14
-2.49978e-14
7.51349e-15
8.81739e-15
-2.84217e-14
-2.23245e-15
2.84217e-14
-1.42109e-14
-1.32026e-15
3.42392e-15
-1.07869e-14
-8.42569e-15
0
2.84217e-14
-6.19323e-15
5.92155e-14
-1.10243e-15
-4.20744e-15
-1.53969e-14
0
1.42109e-14
-1.22413e-14
-6.19323e-15
1.96955e-15
-1.22413e-14
-1.32987e-14
0
2.84217e-14
7.51349e-15
2.84217e-14
2.49978e-14
4.87297e-15
-5.39347e-15
1.42109e-14
1.32026e-15
3.18456e-14
2.84217e-14
1.02501e-14
5.68434e-14
2.49978e-14
3.14465e-15
-3.26291e-14
-2.64522e-14
9.12196e-16
2.60496e-14
4.90057e-15
0
1.98909e-14
1.42109e-14
2.84217e-14
6.31116e-15
1.51231e-14
2.84217e-14
4.20744e-15
1.32026e-15
-3.42392e-15
0
1.32026e-15
1.76348e-14
2.42143e-14
4.08063e-16
8.81739e-15
3.26291e-14
-2.23245e-15
2.84217e-14
3.05254e-14
0
5.39347e-15
0
5.78517e-15
5.05323e-14
2.21106e-14
1.90838e-14
0
7.10543e-15
-1.84763e-14
2.13163e-14
4.38186e-14
1.47621e-14
2.37206e-15
8.20785e-15
2.84217e-14
0
2.60496e-14
-1.36596e-14
2.37206e-15
-1.14548e-14
-1.30248e-14
1.65364e-15
2.37206e-15
1.10243e-15
2.84217e-14
7.10543e-15
1.42109e-14
2.52303e-14
0
4.90373e-14
-2.84217e-14
7.80613e-15
-8.15902e-15
2.84217e-14
2.43422e-14
4.65356e-14
2.43422e-14
3.62278e-14
-2.84217e-14
0
2.02627e-14
-3.62278e-14
3.65807e-14
2.52303e-14
4.07951e-15
0
4.07951e-15
7.80613e-15
5.68434e-14
2.84217e-14
4.47813e-14
1.63596e-14
1.42109e-14
2.84217e-14
0
0
5.12276e-14
-2.84217e-14
5.6158e-15
-3.27192e-14
-3.05705e-14
-1.42109e-14
0
1.63596e-14
0
1.22385e-14
2.06156e-14
4.47813e-14
2.84217e-14
4.26326e-14
1.20621e-14
0
-1.63596e-14
-2.84217e-14
0
4.69301e-14
0
2.41242e-14
-1.85084e-14
0
-2.84217e-14
-2.43422e-14
-2.84217e-14
-2.84217e-14
4.07951e-15
2.84217e-14
2.84217e-14
2.41242e-14
2.84217e-14
2.41242e-14
1.63596e-14
0
-2.84217e-14
0
2.84217e-14
2.84217e-14
0
0
0
-1.42109e-14
4.07951e-15
-2.84217e-14
2.84217e-14
-1.61832e-14
0
2.84217e-14
3.4868e-14
4.29753e-15
6.44629e-15
1.63596e-14
-1.85084e-14
0
-2.84217e-14
0
-1.42109e-14
-2.84217e-14
0
0
1.20621e-14
3.25012e-14
1.42109e-14
-1.25592e-15
2.84217e-14
0
0
-5.68434e-14
-6.44629e-15
-3.8335e-14
6.44629e-15
6.44629e-15
0
0
2.84217e-14
0
-1.63596e-14
-1.63596e-14
3.05705e-14
0
0
2.84217e-14
5.68434e-14
-2.84217e-14
-2.84217e-14
1.85084e-14
0
3.8335e-14
-4.29753e-15
0
4.29753e-15
0
-2.84217e-14
-2.14876e-15
0
0
9.91333e-15
4.47813e-14
4.26326e-14
0
5.68434e-14
5.68434e-14
0
3.87295e-14
0
2.19754e-14
6.11409e-14
2.84217e-14
-3.27192e-14
-4.29753e-15
2.84217e-14
0
2.19754e-14
0
3.27192e-14
6.44629e-15
4.47813e-14
0
0
2.84217e-14
3.62278e-14
-2.02627e-14
-6.38286e-15
6.44629e-15
0
2.84217e-14
4.07951e-15
-1.42109e-14
-2.43422e-14
2.84217e-14
0
2.84217e-14
-8.15902e-15
4.04838e-14
4.86844e-14
7.3203e-14