/*--------------------------------*- C++ -*----------------------------------*\
| =========                 |                                                 |
| \\      /  F ield         | OpenFOAM: The Open Source CFD Toolbox           |
|  \\    /   O peration     | Version:  4.1                                   |
|   \\  /    A nd           | Web:      www.OpenFOAM.org                      |
|    \\/     M anipulation  |                                                 |
\*---------------------------------------------------------------------------*/
FoamFile
{
    version     2.0;
    format      ascii;
    class       volVectorField;
    location    "600";
    object      U;
}
// * * * * * * * * * * * * * * * * * * * * * * * * * * * * * * * * * * * * * //

dimensions      [0 1 -1 0 0 0 0];

internalField   nonuniform List<vector> 
1000
(
(-2.33259e-18 -2.33259e-18 -4.72481e-18)
(-1.98499e-18 0 -2.47086e-18)
(-2.16442e-18 -6.05476e-19 -1.49128e-18)
(-2.46716e-18 -1.11845e-18 -9.79575e-19)
(-1.2896e-18 0 4.38402e-20)
(-9.08213e-19 -1.11845e-18 -6.43228e-19)
(-1.09891e-18 0 1.31592e-18)
(-4.93432e-19 0 2.92507e-19)
(3.14002e-19 9.25043e-20 2.92507e-19)
(2.33259e-18 -1.74973e-18 7.8203e-19)
(0 -2.28773e-18 -2.7339e-18)
(-1.23358e-18 -1.23358e-18 -1.92611e-18)
(-1.98894e-18 -7.24938e-19 -7.61296e-19)
(-1.00208e-18 -6.59147e-19 0)
(-4.78222e-19 -2.01084e-19 1.49749e-19)
(-6.94516e-19 -4.27641e-19 3.12047e-19)
(-4.63011e-19 -3.04217e-20 5.20079e-19)
(-5.23854e-19 4.63011e-19 5.8282e-20)
(-5.23854e-19 3.53693e-20 5.8282e-20)
(0 -1.12244e-19 8.48055e-19)
(0 -2.46716e-18 -1.71048e-18)
(-4.93432e-19 -1.72701e-18 -9.11045e-19)
(-9.86865e-19 -7.5536e-19 -9.11045e-19)
(-9.56443e-19 1.52109e-20 1.04016e-19)
(-4.93432e-19 2.61927e-19 2.08032e-19)
(-5.23854e-19 0 1.04016e-19)
(-2.46716e-19 6.94516e-19 3.57781e-19)
(-7.40149e-19 1.18795e-18 3.57781e-19)
(-5.59223e-19 9.71654e-19 5.65813e-19)
(1.11845e-18 1.40165e-18 8.48055e-19)
(0 -1.40165e-18 -6.43228e-19)
(-2.61927e-19 -9.86865e-19 -6.5728e-19)
(-2.46716e-19 -4.63011e-19 -7.61296e-19)
(-4.78222e-19 3.04217e-20 -2.53765e-19)
(-9.86865e-19 9.56443e-19 -7.61296e-19)
(-2.61927e-19 2.31505e-19 -6.5728e-19)
(4.78222e-19 9.41232e-19 -5.53264e-19)
(-2.46716e-19 2.01084e-19 -2.53765e-19)
(-4.58063e-19 9.41232e-19 5.07531e-19)
(9.25043e-20 1.89508e-18 0)
(-4.20467e-19 -9.08213e-19 -6.87069e-19)
(-3.77061e-19 -9.41232e-19 -4.49248e-19)
(3.04217e-20 -1.65783e-19 -1.95483e-19)
(2.16295e-19 -7.09727e-19 -7.03014e-19)
(-5.39065e-19 4.58132e-19 -7.61296e-19)
(-2.92349e-19 -4.56202e-20 -5.07531e-19)
(2.16295e-19 2.16295e-19 -2.08032e-19)
(5.05142e-36 -5.23558e-19 -2.53765e-19)
(4.27641e-19 4.23853e-34 -5.07531e-19)
(1.11845e-18 4.98775e-19 -1.02342e-18)
(0 -5.72084e-19 -1.75361e-19)
(2.46716e-19 -7.40149e-19 -9.14675e-20)
(-1.52109e-20 2.66806e-19 -1.95483e-19)
(1.85873e-19 -4.93432e-19 -2.99499e-19)
(-3.22771e-19 -2.66806e-19 -1.26883e-18)
(-2.77138e-19 2.46729e-19 -5.65813e-19)
(5.23854e-19 3.04217e-20 -7.15562e-19)
(3.04217e-20 1.55072e-20 -4.57337e-20)
(-1.46592e-36 3.04217e-20 4.03515e-19)
(-2.82234e-35 -4.8809e-19 0)
(0 -1.57303e-19 -5.55548e-19)
(7.7057e-19 -5.84698e-19 -5.07531e-19)
(2.77138e-19 -5.39065e-19 -1.06079e-18)
(-5.23854e-19 -5.39065e-19 -4.57337e-20)
(-4.56326e-20 -2.46716e-19 -9.11045e-19)
(-1.52109e-20 7.85781e-19 -8.65312e-19)
(1.52109e-20 4.56326e-20 -7.61296e-19)
(-2.46716e-19 4.56326e-20 -6.5728e-19)
(-2.61927e-19 0 -5.53264e-19)
(0 6.84127e-19 -5.11708e-19)
(0 -5.72084e-19 8.76805e-20)
(2.92349e-19 -7.5536e-19 -2.08032e-19)
(2.77138e-19 -1.01729e-18 -4.03515e-19)
(4.78222e-19 -5.39065e-19 -1.04016e-19)
(7.5536e-19 -5.08643e-19 -3.57781e-19)
(2.61927e-19 -4.78222e-19 4.57337e-20)
(3.04217e-20 -4.478e-19 -1.01506e-18)
(-1.52109e-20 -4.93432e-19 0)
(1.50504e-19 -2.31505e-19 -3.57781e-19)
(5.12971e-19 4.93432e-19 -5.11708e-19)
(-9.25043e-20 -6.95191e-19 1.31521e-19)
(2.26558e-19 -3.02244e-19 1.21054e-18)
(4.93432e-19 1.45556e-19 1.06079e-18)
(2.31505e-19 -2.31505e-19 7.03014e-19)
(-2.31505e-19 -3.32666e-19 7.03014e-19)
(2.92349e-19 -3.47877e-19 1.21054e-18)
(7.40149e-19 -4.63011e-19 5.07531e-19)
(2.16295e-19 -2.92349e-19 -5.07531e-19)
(2.31505e-19 3.53693e-20 -2.08032e-19)
(6.05476e-19 1.10635e-20 -1.02342e-18)
(8.75157e-19 -5.82857e-19 8.82399e-19)
(7.96371e-19 4.20467e-19 1.57896e-18)
(1.12043e-19 1.02594e-18 1.06726e-18)
(4.93432e-19 -6.05476e-19 6.43228e-19)
(8.74822e-19 4.20467e-19 1.15494e-18)
(0 1.02594e-18 1.06726e-18)
(4.14781e-19 0 1.02342e-18)
(3.33916e-20 6.05476e-19 4.38402e-20)
(-3.81389e-19 6.9798e-19 1.31521e-19)
(0 5.82857e-19 -3.12812e-19)
(-2.47225e-18 -1.80823e-18 -2.99306e-18)
(-1.18768e-18 1.9603e-19 -9.00468e-19)
(-3.04731e-19 0 -4.46634e-19)
(0 1.17557e-18 -5.79615e-19)
(2.83052e-19 0 2.03544e-20)
(2.83052e-19 0 -6.7017e-19)
(-1.4803e-18 -1.11022e-18 6.09995e-19)
(-1.4803e-18 -1.30686e-19 3.81554e-19)
(4.11194e-19 0 1.29331e-20)
(1.15134e-18 4.9445e-19 1.05197e-19)
(-1.9603e-19 -1.13923e-18 -1.76468e-18)
(-5.33398e-19 -4.17199e-19 -1.19776e-18)
(9.82822e-35 -2.82984e-19 -1.12785e-19)
(9.82822e-35 2.10448e-19 -1.24489e-19)
(-3.19252e-19 -4.93432e-19 -1.34505e-19)
(-3.5552e-19 -4.20897e-19 -5.8995e-20)
(-9.14329e-19 -6.05934e-19 2.85958e-19)
(-2.46716e-19 6.89326e-19 3.97596e-19)
(6.31345e-19 4.93432e-19 2.75221e-20)
(1.17557e-18 6.70022e-19 2.31807e-20)
(-1.9603e-19 -9.43507e-20 -7.97061e-19)
(-3.2295e-19 -4.93432e-19 -1.8463e-19)
(2.46716e-19 -2.82984e-19 -3.48354e-19)
(3.62678e-20 -2.10448e-19 4.79879e-20)
(-2.46716e-19 -7.40149e-19 9.82371e-20)
(2.10448e-19 -9.14329e-19 1.3098e-19)
(2.46716e-19 -2.46716e-19 2.51945e-19)
(-7.25356e-20 7.40149e-19 2.9231e-19)
(1.37913e-19 1.30612e-18 2.67189e-19)
(1.17557e-18 1.38595e-18 2.22115e-20)
(-1.30686e-19 -2.83052e-19 -6.7017e-19)
(-2.97539e-19 -5.65968e-19 -1.05162e-19)
(3.62678e-20 0 -2.77639e-19)
(-4.57165e-19 -4.93432e-19 -3.25054e-19)
(-7.76416e-19 2.46716e-19 -1.12785e-19)
(3.84629e-19 -2.46716e-19 1.81958e-20)
(7.40149e-19 2.46716e-19 -1.56781e-20)
(8.12684e-19 -7.25356e-20 2.08744e-19)
(5.44255e-19 4.93432e-19 -7.04904e-21)
(1.30686e-19 3.99082e-19 -4.93432e-19)
(1.30686e-19 -6.82134e-19 -3.18996e-19)
(-1.23358e-19 -9.86865e-19 -4.18496e-19)
(-1.74181e-19 3.62678e-20 -1.33808e-19)
(-2.10448e-19 -7.40149e-19 -4.96833e-19)
(-2.46716e-19 2.10448e-19 -3.59501e-19)
(2.10448e-19 -2.10448e-19 -3.44472e-20)
(1.74181e-19 -1.74181e-19 3.53699e-19)
(-7.25356e-20 -7.25356e-20 -7.9468e-20)
(-3.25151e-35 3.62678e-20 -1.99302e-19)
(2.3918e-35 -5.73232e-19 -7.21873e-19)
(-1.11022e-18 0 -2.0526e-19)
(-1.48769e-19 -3.84629e-19 2.85385e-19)
(2.82984e-19 -2.10448e-19 -9.23115e-20)
(-5.297e-19 -2.10448e-19 -1.01065e-19)
(-7.40149e-19 -2.82984e-19 -4.76941e-19)
(2.46716e-19 -4.57165e-19 -1.43831e-19)
(1.12478e-18 -7.40149e-19 3.10393e-20)
(1.02313e-18 -4.20897e-19 -2.27272e-20)
(3.80931e-19 -2.46716e-19 4.37265e-19)
(6.53432e-20 -5.73232e-19 9.69167e-22)
(-1.17557e-18 9.86865e-19 -2.57933e-19)
(-4.57165e-19 4.93432e-19 7.04904e-21)
(4.93432e-19 -2.82984e-19 -3.36076e-19)
(2.10448e-19 0 -2.68313e-19)
(-2.46716e-19 2.82984e-19 -3.48354e-19)
(2.46716e-19 8.12684e-19 -1.20407e-19)
(7.03881e-19 -2.10448e-19 -1.12785e-19)
(6.67613e-19 -5.5881e-19 -2.2852e-19)
(1.23358e-19 -7.40149e-19 -2.20898e-19)
(-1.30686e-19 -5.87783e-19 2.55854e-19)
(-1.11022e-18 3.99082e-19 -2.06007e-19)
(-6.7847e-19 5.65968e-19 -1.39733e-19)
(3.62678e-20 5.65968e-19 -1.08687e-19)
(2.82984e-19 3.19252e-19 2.37963e-19)
(3.19252e-19 6.02236e-19 1.1813e-19)
(-2.46716e-19 8.48952e-19 1.46085e-19)
(-2.46716e-19 3.5552e-19 -2.32618e-19)
(2.46716e-19 -4.57165e-19 6.16791e-19)
(-7.25356e-20 -5.5881e-19 -4.5594e-20)
(0 -6.31814e-34 1.3298e-19)
(9.79537e-19 -5.87783e-19 8.00243e-19)
(3.80931e-19 8.33922e-20 1.14694e-18)
(0 5.76825e-19 8.3064e-19)
(0 -1.37913e-19 5.78695e-19)
(3.62678e-20 -1.88735e-19 4.14971e-19)
(-4.93432e-19 3.62678e-20 5.72777e-19)
(-8.48952e-19 7.51005e-19 2.40798e-19)
(-2.46716e-19 1.12502e-19 1.30407e-19)
(5.80523e-19 4.93432e-19 2.31472e-19)
(1.30625e-18 5.05544e-19 -4.75157e-19)
(8.19334e-19 0 1.33324e-18)
(2.92619e-19 -6.53432e-20 1.35037e-18)
(-4.93432e-19 -6.53432e-20 6.19354e-19)
(-6.82134e-19 -1.17557e-18 9.15917e-19)
(-1.32681e-33 -1.30625e-18 9.08718e-19)
(2.83052e-19 0 4.9745e-19)
(2.83052e-19 1.11022e-18 7.22843e-19)
(1.88701e-19 1.11022e-18 3.90913e-19)
(-2.34604e-19 2.35113e-18 1.84906e-19)
(-6.56892e-19 1.15134e-18 -1.40765e-19)
(0 4.03565e-19 -6.20183e-19)
(0 -8.63082e-19 4.93432e-19)
(-8.94453e-19 2.47141e-19 4.92463e-19)
(-1.84825e-19 6.78682e-19 3.99082e-19)
(7.09628e-19 -4.31541e-19 2.77177e-19)
(-9.24123e-20 6.78682e-19 -4.964e-19)
(-9.24123e-20 0 -4.33479e-19)
(-2.77237e-19 0 -4.03018e-19)
(6.18916e-20 4.31541e-19 -6.16306e-19)
(9.4956e-19 0 -7.60241e-19)
(-1.11022e-18 -1.64477e-19 -8.03009e-19)
(6.16791e-20 2.94846e-34 -2.39651e-19)
(-1.5779e-19 -3.97322e-19 2.95277e-19)
(-7.84612e-19 2.63932e-19 -1.7305e-19)
(1.13326e-19 -6.16791e-19 4.14963e-20)
(2.46716e-19 -1.85037e-19 -5.76425e-19)
(0 1.5779e-19 -1.31554e-19)
(-3.35643e-19 2.46716e-19 7.4797e-20)
(-3.35643e-19 4.14538e-19 -3.70074e-19)
(0 1.84825e-19 -3.70559e-19)
(0 -4.93432e-19 -3.33687e-20)
(-3.35643e-19 4.93432e-19 -1.1307e-21)
(-4.93432e-19 -4.93432e-19 3.77139e-19)
(-4.93432e-19 -1.3339e-19 3.68944e-19)
(1.5779e-19 -4.48969e-19 4.93432e-19)
(8.53475e-19 -4.48969e-19 8.18618e-20)
(6.95685e-19 2.9118e-19 -2.87082e-19)
(-2.45705e-33 2.9118e-19 -2.45705e-35)
(-4.31753e-19 8.89267e-20 -6.16791e-19)
(-2.47141e-19 4.93432e-19 -3.10606e-19)
(0 -2.77237e-19 -4.3245e-19)
(-4.93432e-19 -3.80106e-19 7.06485e-21)
(-5.37896e-19 -2.46716e-19 3.77139e-19)
(-4.93432e-19 -5.82359e-19 -1.1926e-19)
(-2.02253e-19 0 3.70074e-19)
(4.93432e-19 0 5.00497e-19)
(7.40149e-19 3.80106e-19 4.06342e-19)
(-4.44633e-20 -4.60698e-34 1.1926e-19)
(-4.41785e-19 8.89267e-20 -4.93432e-19)
(2.47141e-19 3.08608e-19 -7.40149e-19)
(0 -4.93432e-19 -3.04612e-20)
(-2.02253e-19 -2.46716e-19 -1.20391e-19)
(-2.02253e-19 -2.46716e-19 3.28578e-19)
(5.6124e-36 -6.06759e-19 -4.14963e-20)
(4.93432e-19 -1.5779e-19 3.70074e-19)
(1.23358e-18 -4.93432e-19 4.51936e-19)
(6.95685e-19 -4.04506e-19 2.42618e-19)
(-4.44633e-20 -2.46716e-19 -2.06351e-19)
(9.61105e-20 2.9118e-19 2.96707e-21)
(2.47141e-19 -7.14536e-36 -4.93432e-19)
(1.11022e-18 -7.58177e-34 1.22874e-19)
(-6.16791e-20 4.44633e-20 3.65977e-19)
(-6.51222e-19 -2.9118e-19 4.07473e-19)
(-1.5779e-19 -4.93432e-19 3.99277e-19)
(1.5779e-19 -1.14393e-33 8.13815e-19)
(7.40149e-19 -2.9118e-19 7.8871e-19)
(7.40149e-19 -1.03133e-18 8.13815e-19)
(6.51222e-19 -6.95685e-19 2.45586e-19)
(-1.00319e-20 -4.93432e-19 2.46716e-19)
(-1.29462e-18 1.84825e-19 9.69167e-22)
(-6.78682e-19 4.0102e-19 2.46716e-19)
(-3.08395e-19 -2.46716e-19 9.00905e-19)
(-2.46716e-19 -2.46716e-19 7.81645e-19)
(4.44633e-20 2.46716e-19 2.84115e-19)
(4.48969e-19 4.93432e-19 4.51936e-19)
(2.02253e-19 2.02253e-19 7.81645e-19)
(4.44633e-20 -5.82359e-19 4.56034e-19)
(2.46716e-19 -4.04506e-19 5.00497e-19)
(2.02253e-19 -9.86865e-19 4.21603e-19)
(0 1.84825e-19 8.01071e-19)
(-6.78682e-19 2.77237e-19 1.89544e-34)
(-2.63932e-19 8.73539e-19 4.51936e-19)
(8.89267e-20 7.84612e-19 7.36051e-19)
(8.89267e-20 5.82359e-19 6.08595e-19)
(1.13326e-19 4.93432e-19 8.9271e-19)
(-8.89267e-20 -2.02253e-19 4.46002e-19)
(3.80106e-19 -2.46716e-19 1.03543e-18)
(2.46716e-19 -2.46716e-19 1.23358e-18)
(-7.1711e-20 -9.42402e-19 7.51311e-19)
(6.78682e-19 -4.93432e-19 5.86814e-19)
(4.31541e-19 2.77237e-19 8.00102e-19)
(3.44314e-20 7.05717e-19 7.24888e-19)
(-7.84612e-19 -2.19469e-19 6.13823e-19)
(-4.93432e-19 0 8.14946e-19)
(-3.35643e-19 -2.73964e-19 7.37182e-19)
(-5.37896e-19 6.16791e-20 8.53475e-19)
(4.93432e-19 5.55112e-19 8.64637e-19)
(4.44633e-20 3.60042e-19 9.86865e-19)
(-2.29501e-19 2.02253e-19 9.46499e-19)
(6.78682e-19 -8.22387e-20 7.09687e-19)
(0 0 9.2277e-19)
(-9.86865e-19 -4.31541e-19 5.22865e-19)
(-4.93432e-19 -2.46759e-18 1.20209e-18)
(3.08608e-19 0 1.44881e-18)
(2.16195e-19 -1.11022e-18 8.96391e-19)
(9.86865e-19 6.78682e-19 4.95371e-19)
(1.4803e-18 1.54176e-18 7.71579e-19)
(4.0102e-19 1.78891e-18 3.40098e-19)
(-4.93432e-19 1.78891e-18 9.33815e-20)
(0 1.15134e-18 0)
(0 -1.15134e-18 2.46716e-19)
(0 -1.11022e-18 1.20876e-19)
(-4.93432e-19 0 3.67592e-19)
(1.49339e-19 -7.46627e-19 1.1382e-18)
(2.98678e-19 0 9.33815e-20)
(-6.49182e-20 -5.45394e-19 6.38895e-20)
(-1.38999e-33 0 -3.06669e-19)
(-2.79175e-19 9.28425e-19 -7.0672e-19)
(7.57469e-19 -1.81798e-19 -7.40149e-19)
(2.12091e-18 2.72656e-19 -1.17618e-18)
(0 -6.25451e-19 -6.09224e-20)
(4.93432e-19 -9.25186e-19 3.85335e-19)
(-1.05318e-19 0 1.71919e-19)
(3.35456e-19 3.08395e-19 3.21513e-19)
(1.94057e-19 5.26589e-20 2.13415e-19)
(-1.05318e-19 8.72774e-20 -3.33007e-20)
(6.34831e-19 0 -3.9518e-19)
(-2.46716e-19 7.13088e-19 -9.12068e-19)
(6.16791e-19 -7.06992e-20 -6.40246e-19)
(2.22045e-18 9.73773e-20 -5.56353e-19)
(-9.28425e-19 -4.93432e-19 1.53335e-19)
(6.25811e-19 0 4.91411e-35)
(9.86865e-19 0 2.38521e-19)
(1.41398e-19 4.93432e-19 6.16791e-19)
(-3.52034e-19 -4.40774e-19 2.46716e-19)
(-1.57977e-19 4.04693e-19 1.80115e-19)
(4.40774e-19 5.9875e-19 -7.16693e-19)
(-4.93432e-19 3.52034e-19 -5.50189e-19)
(-1.66997e-19 3.52034e-19 -6.83392e-19)
(1.11022e-18 0 -3.06669e-19)
(0 1.49339e-19 -1.86763e-19)
(4.93432e-19 8.81547e-19 -1.31554e-19)
(3.88115e-19 1.41398e-19 4.85237e-19)
(-1.05318e-19 -1.05318e-19 2.42618e-19)
(1.05318e-19 -2.46716e-19 1.23358e-19)
(6.8749e-19 4.93432e-19 1.15163e-19)
(3.35456e-19 3.52034e-19 -1.85862e-19)
(-4.93432e-19 0 -4.56034e-19)
(7.58189e-19 1.14484e-18 -1.56659e-19)
(2.58404e-18 0 -5.51388e-19)
(0 4.28514e-19 -9.33815e-20)
(2.46716e-19 5.82172e-19 2.42618e-19)
(-2.46716e-19 3.35456e-19 2.80017e-19)
(-2.46716e-19 -5.26589e-20 2.46716e-19)
(2.46716e-19 2.46716e-19 4.26831e-19)
(1.94057e-19 4.93432e-19 2.46716e-19)
(1.94057e-19 5.26589e-20 -1.1926e-19)
(2.99375e-19 2.99375e-19 -6.50091e-19)
(7.97194e-20 7.92808e-19 -1.27456e-19)
(-5.64829e-19 4.93432e-19 -3.67592e-19)
(1.29202e-18 7.0769e-19 1.83796e-19)
(9.95885e-19 9.34206e-19 1.27456e-19)
(-4.0638e-34 6.8749e-19 1.60757e-19)
(-1.94057e-19 4.40774e-19 6.95685e-19)
(4.04693e-19 0 6.91588e-19)
(2.46716e-19 4.40774e-19 7.65254e-19)
(1.41398e-19 5.26589e-20 2.31456e-19)
(1.48676e-35 1.57977e-19 -9.00574e-20)
(2.12098e-19 1.05318e-19 -1.46814e-19)
(5.45394e-19 4.93432e-19 1.25841e-19)
(1.11022e-18 7.0769e-19 -3.72557e-19)
(4.31753e-19 2.99375e-19 3.74172e-19)
(-4.93432e-19 4.93432e-19 4.60132e-19)
(-4.40774e-19 5.46091e-19 9.24361e-19)
(4.93432e-19 4.40774e-19 8.63507e-19)
(5.40552e-34 4.76854e-19 4.93432e-19)
(-3.35456e-19 3.52034e-19 5.79392e-19)
(5.9875e-19 3.52034e-19 5.85139e-19)
(8.46929e-19 1.57977e-19 7.94457e-19)
(9.0899e-19 -6.42771e-19 3.07639e-19)
(-1.81798e-19 -2.14257e-19 2.46716e-19)
(3.70074e-19 -2.46716e-19 7.40149e-19)
(4.91411e-35 0 7.44246e-19)
(2.46716e-19 5.46091e-19 9.9506e-19)
(8.28888e-19 9.34206e-19 9.42402e-19)
(-8.87396e-20 3.88115e-19 3.7827e-19)
(-2.30138e-19 9.34206e-19 8.31855e-19)
(5.26589e-20 8.81547e-19 1.03001e-18)
(-1.66997e-19 -1.05318e-19 1.32119e-18)
(-5.64829e-19 -6.42771e-19 7.67643e-19)
(1.81798e-19 -1.03664e-18 -1.99791e-21)
(5.64132e-19 -9.62976e-20 4.86368e-19)
(2.99375e-19 0 3.07571e-19)
(4.93432e-19 5.64132e-19 7.48344e-19)
(1.0756e-18 -3.70074e-19 9.90963e-19)
(2.46716e-19 -3.26436e-19 6.62385e-19)
(-8.87396e-20 -9.62976e-20 8.63507e-19)
(-4.40774e-19 -4.36387e-20 5.03277e-19)
(-4.93432e-19 -5.8973e-19 4.69977e-19)
(0 -3.24591e-20 7.67643e-19)
(2.03003e-18 -2.30268e-18 4.80037e-19)
(1.77679e-18 -7.46627e-19 9.43507e-20)
(1.05178e-18 0 1.14117e-18)
(-4.93432e-19 1.81798e-19 1.26701e-18)
(4.4227e-34 -2.22045e-18 1.57368e-18)
(4.93432e-19 -1.47382e-18 9.2891e-19)
(-2.14257e-19 -1.11022e-18 8.3353e-19)
(-7.0769e-19 -1.11022e-18 4.00051e-19)
(-5.25892e-19 -1.11022e-18 2.1129e-19)
(-9.08855e-20 -9.08855e-20 4.15942e-19)
(-7.67107e-19 0 1.05766e-18)
(2.19466e-19 -1.64965e-19 3.67592e-19)
(9.86865e-19 -4.80051e-19 3.67592e-19)
(4.93432e-19 0 7.04723e-19)
(2.74941e-20 0 6.29203e-20)
(2.74941e-20 -7.95137e-19 -1.4837e-19)
(-4.93432e-19 -7.95137e-19 -2.1129e-19)
(8.24824e-20 -1.7404e-18 1.88761e-19)
(9.87109e-19 -6.30172e-19 -1.14941e-19)
(1.15134e-18 0 -6.96996e-19)
(3.15086e-19 -4.93432e-19 8.9645e-19)
(3.08395e-19 -6.1844e-19 7.36051e-19)
(3.10869e-19 -5.55112e-19 1.81764e-19)
(1.25007e-19 -3.71724e-19 1.52561e-19)
(0 -4.93432e-19 -2.50814e-19)
(0 -4.34227e-19 2.42618e-19)
(-6.75996e-19 -8.02652e-19 -6.29084e-19)
(-1.1841e-19 -1.83388e-19 -4.2848e-19)
(8.02652e-19 -1.87511e-19 -3.22032e-19)
(6.30172e-19 -8.24824e-20 -6.71294e-19)
(0 5.49882e-20 8.3353e-19)
(6.1844e-19 -1.82563e-19 6.16791e-19)
(7.40149e-19 -1.21709e-19 -5.67567e-20)
(-2.77647e-33 -6.08544e-20 5.51838e-19)
(2.7519e-33 -4.93432e-19 -2.46716e-19)
(-2.7519e-33 -2.46716e-19 2.67724e-19)
(-5.75559e-20 -3.71724e-19 -3.82368e-19)
(1.85862e-19 6.15141e-19 -5.50189e-19)
(5.53462e-19 1.1841e-19 1.50912e-19)
(1.11022e-18 -1.09976e-19 3.54262e-20)
(0 1.06935e-18 2.1129e-19)
(9.86865e-19 1.29773e-18 3.42521e-19)
(9.2601e-19 1.85862e-19 -5.67567e-20)
(-4.93432e-19 3.71724e-19 1.27456e-19)
(-4.32578e-19 1.21709e-19 0)
(1.21709e-19 3.71724e-19 -2.75537e-20)
(1.85862e-19 7.40149e-19 -5.05726e-19)
(1.25007e-19 -3.10869e-19 -6.81743e-19)
(4.92608e-19 4.93432e-19 4.24382e-19)
(1.11022e-18 -6.4366e-34 -5.79553e-20)
(1.11022e-18 1.01436e-18 -1.28808e-19)
(4.31753e-19 9.86865e-19 1.56659e-19)
(6.08544e-20 -6.08544e-20 6.905e-20)
(-6.4153e-20 5.54287e-19 3.11668e-19)
(2.46716e-19 4.93432e-19 1.15163e-19)
(8.65156e-19 9.2601e-19 -1.23358e-19)
(-2.46716e-19 3.10869e-19 -2.80017e-19)
(-6.08544e-20 -4.39924e-34 -1.27456e-19)
(1.11105e-18 8.04302e-19 1.56659e-19)
(1.11022e-18 5.20927e-19 3.54262e-20)
(3.15086e-19 5.49882e-20 -3.75524e-19)
(6.16791e-20 6.08544e-20 1.1926e-19)
(4.93432e-19 3.07571e-19 -2.75919e-19)
(6.08544e-20 6.15141e-19 2.78368e-19)
(-6.08544e-20 1.35859e-18 0)
(1.85862e-19 9.2601e-19 -5.26589e-20)
(-2.46716e-19 7.40149e-19 -2.42618e-19)
(6.1844e-19 1.05102e-18 -9.00574e-20)
(8.63507e-19 1.35859e-18 2.5901e-19)
(6.30172e-19 1.04185e-18 1.25841e-19)
(9.45258e-19 4.04361e-33 -8.90516e-19)
(6.14317e-19 4.93432e-19 -2.80017e-19)
(3.68425e-19 5.54287e-19 -4.03375e-19)
(4.93432e-19 6.15141e-19 4.51936e-19)
(3.10869e-19 1.4803e-18 2.46716e-19)
(1.60937e-33 9.86865e-19 -8.76089e-20)
(-1.21709e-19 1.11187e-18 3.99277e-19)
(8.04302e-19 1.6053e-18 3.54814e-19)
(9.86865e-19 1.4803e-18 4.42423e-19)
(0 5.48421e-19 -1.80829e-19)
(3.15086e-19 4.38444e-19 -2.4527e-20)
(6.15966e-19 9.86865e-19 2.46716e-19)
(6.15141e-19 -1.25007e-19 -4.03375e-19)
(4.93432e-19 2.46716e-19 4.85237e-19)
(3.10869e-19 9.86865e-19 1.1926e-19)
(-1.82563e-19 4.93432e-19 -6.66015e-20)
(3.71724e-19 1.85862e-19 -1.52604e-20)
(9.86865e-19 6.79294e-19 4.1322e-19)
(6.16791e-20 -7.40149e-19 6.93237e-19)
(-1.11022e-18 -4.93432e-19 7.98104e-19)
(3.15086e-19 -2.7421e-19 -3.34164e-19)
(-2.4739e-21 6.16791e-20 3.36774e-19)
(-1.25007e-19 -1.85037e-19 8.18618e-20)
(1.11187e-18 1.85037e-19 5.1444e-19)
(8.04302e-19 4.93432e-19 5.43081e-20)
(-3.07571e-19 3.676e-19 5.67567e-20)
(-4.2928e-19 2.44242e-19 2.17513e-19)
(-8.61858e-19 6.00298e-20 2.27358e-19)
(-8.24632e-22 -9.24361e-19 2.52463e-19)
(1.11022e-18 -4.93432e-19 3.04672e-19)
(1.15134e-18 -7.67789e-19 4.93432e-19)
(9.04626e-19 -1.11022e-18 -5.79553e-20)
(9.31877e-19 4.80051e-19 -1.83796e-19)
(1.4803e-18 1.11022e-18 6.16306e-19)
(4.93432e-19 0 1.1402e-18)
(-9.86865e-19 9.45258e-19 3.94117e-19)
(-9.04383e-19 3.15086e-19 3.34164e-19)
(-8.76888e-19 9.45258e-19 7.01755e-19)
(-2.73967e-19 7.95137e-19 6.44769e-19)
(3.83553e-19 0 1.05096e-18)
(2.74021e-19 0 2.12659e-18)
(9.78646e-20 -5.96506e-19 1.23952e-18)
(-1.59269e-19 -1.11022e-18 7.46083e-19)
(1.20045e-33 -1.11022e-18 5.92748e-19)
(-3.34164e-19 -1.92219e-18 2.43749e-19)
(-4.93432e-19 -8.1197e-19 -5.92748e-19)
(8.27596e-19 -1.32569e-18 -3.40098e-19)
(9.86865e-19 -1.11022e-18 -7.46083e-19)
(3.28955e-19 -1.11022e-18 -3.64625e-19)
(4.75121e-19 -4.75121e-19 -7.74487e-19)
(2.98253e-19 -4.93432e-19 1.62473e-18)
(-2.21127e-20 -7.25407e-19 1.06628e-18)
(3.95663e-20 -4.31753e-19 5.01628e-19)
(1.77666e-19 -3.62703e-19 -2.42618e-19)
(0 -9.25186e-19 -2.17513e-19)
(-1.381e-19 -3.15766e-19 -4.64229e-19)
(2.46716e-19 -5.15545e-19 -7.0275e-19)
(4.53866e-19 -3.23137e-19 -1.31554e-19)
(5.00803e-19 -4.31753e-19 -4.69977e-19)
(1.11022e-18 -1.69686e-19 -8.5509e-19)
(-8.1197e-19 -1.43643e-19 1.87441e-18)
(3.95663e-20 3.95663e-20 1.3089e-18)
(6.02049e-19 0 3.70074e-19)
(-1.47423e-34 6.905e-20 3.05122e-19)
(-6.905e-20 -1.77666e-19 1.48463e-19)
(3.95663e-20 0 -3.57492e-20)
(3.55333e-19 -3.55333e-19 -2.34423e-19)
(9.47299e-19 -3.84816e-19 -7.53156e-20)
(8.8562e-19 5.32999e-19 1.1926e-19)
(1.11022e-18 0 1.56302e-19)
(0 5.24684e-19 8.3353e-19)
(-1.77666e-19 7.79715e-19 3.99277e-19)
(6.905e-20 3.84816e-19 1.23358e-19)
(-2.46716e-19 -1.08616e-19 4.39448e-20)
(-3.15766e-19 0 2.46716e-19)
(-6.905e-20 6.905e-20 2.9203e-20)
(1.08616e-19 -3.95663e-20 3.34325e-19)
(1.58891e-18 1.381e-19 -3.61879e-19)
(1.31737e-18 6.71099e-19 2.10967e-19)
(2.15465e-19 4.93432e-19 2.46716e-19)
(1.62394e-18 6.68327e-19 4.33479e-19)
(3.4525e-19 2.46716e-19 -2.46716e-19)
(-2.86283e-19 2.46716e-19 1.11065e-19)
(-6.31532e-19 -1.08616e-19 2.38521e-19)
(-6.31532e-19 4.93432e-19 2.06869e-19)
(0 3.15766e-19 7.53156e-20)
(6.71099e-19 8.09199e-19 2.46716e-19)
(1.65796e-18 1.12496e-18 5.22635e-19)
(1.30263e-18 9.47299e-19 5.91685e-19)
(8.1197e-19 9.73718e-19 4.00051e-19)
(5.13717e-19 4.77807e-19 -3.06669e-19)
(2.21127e-20 -1.77666e-19 -1.67303e-19)
(-3.95663e-20 -1.381e-19 -2.50814e-19)
(-9.33681e-34 3.55333e-19 -1.79596e-19)
(-1.381e-19 9.86865e-19 -2.94759e-19)
(0 6.31532e-19 9.41552e-20)
(6.71099e-19 1.65796e-18 5.87588e-19)
(1.72701e-18 1.4803e-18 5.91685e-19)
(7.40149e-19 1.51986e-18 4.05824e-19)
(-8.1197e-19 9.73718e-19 2.96707e-21)
(0 -1.90521e-19 -3.34283e-20)
(0 3.15766e-19 3.9518e-19)
(4.93432e-19 0 -9.82529e-20)
(4.93432e-19 3.55333e-19 5.84059e-20)
(1.381e-19 9.17815e-19 -3.44969e-19)
(6.71099e-19 9.17815e-19 -3.73985e-20)
(1.02643e-18 1.65796e-18 1.27456e-19)
(1.51986e-18 1.83563e-18 2.86563e-19)
(2.46716e-19 1.02643e-18 -1.46533e-19)
(-2.00498e-18 1.16176e-18 -4.18644e-19)
(5.96506e-19 -1.74895e-19 2.04387e-19)
(-1.47418e-20 9.86865e-19 1.48463e-19)
(4.91411e-35 4.93432e-19 -2.46716e-19)
(6.71099e-19 6.71099e-19 -2.86563e-19)
(4.24382e-19 7.79715e-19 -4.64229e-19)
(4.93432e-19 1.51986e-18 -2.51052e-20)
(1.3422e-18 8.09199e-19 -5.84059e-20)
(1.09548e-18 1.09548e-18 -2.16783e-21)
(2.46716e-19 -2.89932e-33 -2.73989e-19)
(0 1.74895e-19 -2.31881e-19)
(1.70673e-18 -7.18215e-20 -3.34283e-20)
(1.70295e-19 -3.70074e-19 -2.94759e-19)
(1.77666e-19 4.93432e-19 5.84059e-20)
(1.02643e-18 5.55112e-19 1.85862e-19)
(9.86865e-19 9.86865e-19 -4.07991e-19)
(4.53866e-19 7.87086e-19 -1.96564e-34)
(6.02049e-19 6.63728e-19 -7.72455e-20)
(4.63949e-19 3.62703e-19 4.39448e-20)
(-4.31753e-19 -4.31753e-19 3.72004e-19)
(-2.98253e-19 -4.21611e-19 2.55617e-19)
(0 -2.011e-19 1.84911e-19)
(4.93432e-19 -2.22045e-18 -2.96707e-21)
(9.86865e-19 0 -2.46716e-19)
(1.81446e-18 -2.98253e-19 1.80829e-19)
(1.00249e-18 1.62394e-18 -6.46767e-19)
(-3.18538e-19 -5.13717e-19 -7.75575e-19)
(8.27596e-19 8.94758e-19 3.04612e-20)
(9.86865e-19 2.98253e-19 3.63953e-20)
(2.3109e-19 -2.98253e-19 6.67537e-19)
(2.011e-19 2.011e-19 9.43539e-19)
(-5.47359e-19 1.15134e-18 1.69726e-18)
(-1.95486e-19 -3.97263e-19 1.04682e-18)
(0 -1.11022e-18 4.57037e-19)
(-5.44663e-19 -2.61771e-18 4.60004e-19)
(-1.23673e-18 -1.11022e-18 -2.92013e-19)
(-4.93432e-19 -1.82318e-18 -8.45398e-19)
(-5.49678e-33 -1.11022e-18 -2.96707e-21)
(4.93432e-19 1.11022e-18 -9.92799e-19)
(1.51445e-18 7.1296e-19 -7.85445e-19)
(2.30268e-18 -1.3338e-18 -1.41459e-18)
(-9.11592e-19 -2.29639e-19 7.2828e-19)
(-6.93449e-19 -2.31737e-19 4.20285e-19)
(-7.40149e-19 -5.86244e-19 6.29602e-19)
(-4.78453e-19 -1.018e-18 2.42618e-19)
(-8.17394e-19 -4.31753e-19 -2.04701e-19)
(-2.46716e-19 -2.15583e-19 -3.07052e-19)
(8.32374e-19 -3.54508e-19 -2.54912e-19)
(3.38941e-19 9.10206e-19 -4.43222e-19)
(2.31737e-19 6.7847e-19 -7.67184e-19)
(5.95894e-19 1.70769e-20 -8.24808e-19)
(-1.98631e-19 -1.13427e-18 1.22468e-18)
(-4.93432e-19 -5.70678e-19 5.68748e-19)
(-9.09619e-19 -1.54491e-19 3.91082e-19)
(-5.70678e-19 -9.22252e-20 1.8638e-19)
(-3.23962e-19 7.72455e-20 -5.62381e-20)
(-1.69471e-19 9.86865e-19 4.20148e-20)
(1.06411e-18 9.86865e-19 2.34423e-19)
(9.09619e-19 4.01207e-19 -1.22933e-20)
(-4.31753e-19 1.23358e-18 -1.79596e-19)
(-9.11592e-19 9.86865e-19 -3.85394e-19)
(-1.98631e-19 1.47401e-19 9.35813e-19)
(-2.46716e-19 -9.86865e-19 -1.23358e-19)
(-7.55128e-19 -5.70678e-19 3.09738e-19)
(-7.40149e-19 -2.46716e-19 5.48259e-19)
(1.49797e-20 2.46716e-19 3.91082e-19)
(6.62903e-19 8.32374e-19 -8.13433e-20)
(4.93432e-19 1.23358e-18 3.09738e-19)
(5.85658e-19 1.69471e-19 1.15163e-19)
(-4.61126e-20 1.31083e-18 -7.19141e-19)
(-1.62455e-18 1.6277e-18 2.04387e-19)
(-2.22045e-18 1.47401e-19 3.91328e-19)
(-8.63507e-19 -1.54491e-19 1.83694e-19)
(7.72455e-20 -8.17394e-19 4.4539e-19)
(2.46716e-19 -1.39511e-19 3.17934e-19)
(5.08412e-19 2.61696e-19 3.9518e-19)
(5.70678e-19 3.23962e-19 -4.80425e-20)
(1.54491e-19 5.70678e-19 5.56455e-19)
(7.40149e-19 8.17394e-19 3.70074e-19)
(7.40149e-19 4.78453e-19 -8.5441e-20)
(-1.98631e-19 1.13294e-18 2.43749e-19)
(-3.97263e-19 -1.98631e-19 -1.98453e-19)
(-9.86865e-19 7.40149e-19 -3.82886e-19)
(-4.93432e-19 7.40149e-19 -5.62381e-20)
(3.38941e-19 4.93432e-19 -3.9847e-20)
(4.78453e-19 4.93432e-19 -2.34423e-19)
(1.2186e-18 -1.49797e-20 2.67724e-19)
(7.40149e-19 2.46716e-19 4.54104e-19)
(4.93432e-19 1.06411e-18 1.61275e-19)
(4.93432e-19 2.31737e-19 -3.49067e-19)
(1.69699e-35 -2.96129e-19 -5.32795e-19)
(1.50749e-18 -5.12307e-20 3.34283e-20)
(3.39528e-19 4.01207e-19 2.51052e-20)
(-1.69471e-19 1.06411e-18 -9.82529e-20)
(-1.83051e-33 4.01207e-19 2.10074e-20)
(-2.46716e-19 6.47923e-19 4.09777e-21)
(5.70678e-19 7.40149e-19 1.73568e-19)
(1.23358e-18 4.16187e-19 2.42618e-19)
(7.25169e-19 8.9464e-19 -1.27456e-19)
(-2.77262e-19 2.31737e-19 -3.38423e-19)
(-1.30885e-18 1.98631e-19 -2.80145e-19)
(1.70612e-18 -2.94801e-19 -1.6817e-19)
(2.47303e-19 -4.01207e-19 -1.79596e-19)
(-4.93432e-19 7.72455e-20 1.8638e-19)
(1.69471e-19 2.46716e-19 -5.62381e-20)
(5.70678e-19 4.78453e-19 -1.44366e-19)
(7.40149e-19 1.15634e-18 -4.09777e-21)
(8.9464e-19 2.61696e-19 -8.13433e-20)
(5.55698e-19 9.09619e-19 1.63205e-19)
(-2.35877e-33 4.16187e-19 -3.13318e-19)
(-1.98631e-19 1.28167e-18 -5.20927e-19)
(-3.97263e-19 1.81554e-19 4.84531e-19)
(-1.69471e-19 -2.46716e-19 -4.60132e-19)
(2.31737e-19 0 1.23358e-19)
(8.9464e-19 3.23962e-19 -3.9518e-19)
(9.09619e-19 -3.54508e-19 -1.85862e-19)
(1.07205e-19 -1.55664e-20 -5.74776e-19)
(7.40149e-19 4.31753e-19 -5.41475e-19)
(1.12638e-18 5.85658e-19 -6.67001e-19)
(7.72455e-20 4.93432e-19 -8.76089e-20)
(-3.97263e-19 6.5791e-19 -8.74474e-20)
(7.86436e-19 3.64906e-19 -3.87452e-20)
(6.26902e-19 3.97263e-19 3.40098e-19)
(8.39464e-19 0 1.92697e-19)
(4.93432e-19 0 1.50368e-19)
(6.40833e-19 -1.50749e-18 -7.79511e-19)
(1.6277e-18 -1.11022e-18 -6.80195e-19)
(1.3329e-18 1.50749e-18 -5.29828e-19)
(3.97263e-19 1.98631e-19 -1.01733e-18)
(-2.94801e-19 1.98631e-19 3.72557e-19)
(-9.68889e-19 -3.64906e-19 6.44006e-19)
(-1.15134e-18 -2.4129e-18 4.61385e-19)
(-9.43989e-19 -2.22045e-18 7.94168e-19)
(-5.32795e-19 0 2.04387e-19)
(-1.18087e-19 0 3.18359e-19)
(-6.1152e-19 -2.63515e-18 -9.93157e-20)
(1.18087e-19 -1.11022e-18 -4.00051e-19)
(5.32795e-19 -2.80808e-19 -7.57578e-20)
(-1.18087e-19 0 -3.22474e-19)
(2.93106e-19 0 -6.68506e-19)
(9.30913e-19 0 -1.57415e-18)
(-1.52493e-18 -1.31582e-18 2.46716e-19)
(-4.31753e-19 -9.48948e-19 2.63626e-19)
(1.61275e-19 0 3.43558e-19)
(-6.64315e-19 7.58341e-20 1.95094e-19)
(-7.49756e-19 -5.3135e-19 1.65373e-19)
(4.93432e-19 1.4712e-19 4.61126e-20)
(5.78874e-19 3.84229e-19 -3.1115e-19)
(-8.5441e-20 2.46716e-19 -5.99881e-19)
(2.37109e-19 5.78874e-19 -1.0554e-18)
(8.29415e-19 7.87248e-20 -8.24808e-19)
(-1.80574e-18 -3.75345e-19 5.50419e-19)
(-2.08799e-19 -8.5441e-20 -2.12897e-19)
(5.69267e-19 7.58341e-20 -6.85314e-20)
(-1.70882e-19 5.69267e-19 -2.90142e-19)
(-2.46716e-19 4.17598e-19 -8.13433e-20)
(4.93432e-19 5.78874e-19 2.54912e-19)
(4.93432e-19 4.07991e-19 7.99319e-20)
(0 4.93432e-19 -2.17513e-19)
(-2.70478e-19 9.86865e-19 -1.87792e-19)
(-6.95515e-19 1.10495e-18 -5.18138e-19)
(-9.76323e-19 -3.75345e-19 1.04682e-18)
(1.89585e-19 5.03039e-19 -8.95388e-20)
(1.0627e-18 4.93432e-19 -2.90142e-19)
(-3.2255e-19 1.70882e-19 1.05037e-19)
(-7.40149e-19 4.17598e-19 3.01543e-19)
(4.83826e-19 4.93432e-19 -3.1115e-19)
(9.86865e-19 4.93432e-19 -4.3041e-19)
(2.46716e-19 4.17598e-19 -1.15163e-19)
(3.70074e-19 4.93432e-19 -6.12693e-19)
(1.80574e-18 1.10495e-18 -4.78776e-19)
(4.14708e-19 -1.4803e-18 8.03069e-19)
(3.98384e-19 8.5441e-20 7.27855e-19)
(-2.56323e-19 -2.46716e-19 4.03894e-19)
(-4.93432e-19 -3.2255e-19 4.24901e-19)
(7.58341e-20 3.32157e-19 1.57177e-19)
(5.69267e-19 4.17598e-19 -5.99881e-19)
(9.11031e-19 9.86865e-19 -4.13501e-19)
(-6.36189e-33 -2.46716e-19 -1.23358e-19)
(5.55112e-19 9.60691e-21 -4.3041e-19)
(2.50125e-18 -8.4123e-19 -5.6919e-19)
(8.29415e-19 -1.18087e-19 8.20693e-19)
(3.12943e-19 -7.49756e-19 2.34423e-19)
(4.07991e-19 -7.40149e-19 4.12089e-19)
(2.56323e-19 0 -8.19554e-21)
(-9.82822e-34 3.32157e-19 -1.22933e-20)
(8.91817e-19 9.60691e-21 -3.15248e-19)
(5.69267e-19 6.64315e-19 -5.49671e-19)
(9.60691e-21 5.35601e-33 -3.40871e-19)
(4.93432e-19 4.17598e-19 -4.21696e-19)
(8.29415e-19 -3.47798e-19 -4.78776e-19)
(-6.95515e-19 1.28349e-18 3.46032e-19)
(-2.70478e-19 -9.60691e-21 -3.19345e-19)
(2.46716e-19 2.46716e-19 -1.95987e-19)
(3.32157e-19 3.2255e-19 -1.41161e-19)
(8.5441e-20 7.40149e-19 2.97215e-20)
(6.54708e-19 2.46716e-19 -5.57195e-20)
(6.54708e-19 8.2559e-19 -1.7498e-19)
(0 9.96472e-19 -3.15248e-19)
(0 9.86865e-19 -2.52225e-19)
(0 1.06559e-18 -1.18087e-19)
(0 9.47502e-19 -3.97084e-19)
(0 4.93432e-19 -3.1115e-19)
(2.46716e-19 3.32157e-19 -1.32965e-19)
(2.56323e-19 -4.07991e-19 -1.87792e-19)
(-3.2255e-19 -8.5441e-20 2.97215e-20)
(7.30542e-19 4.83826e-19 5.48267e-20)
(1.31902e-18 5.69267e-19 -4.51418e-19)
(1.70882e-19 4.93432e-19 -6.44336e-20)