# vtk DataFile Version 2.0
sampleSurface
ASCII
DATASET POLYDATA
POINTS 349 double
0 0 0
-0.5 -5.55112e-17 0.5
0.5 0 0.5
-1 0 0
0 0 1
1 0 0
-1 0 1
1 0 1
-0.5 0 1.5
-1.5 0 0.5
1.5 0 0.5
0.5 0 1.5
-2 0 0
2 0 0
0 0 2
1.5 0 1.5
-1.5 0 1.5
2 0 1
-2 0 1
-1 0 2
1 0 2
-0.5 0 2.5
-2.5 0 0.5
2.5 5.55112e-17 0.5
0.5 5.55112e-17 2.5
2 0 2
-2 0 2
2.5 0 1.5
1.5 2.77556e-17 2.5
-2.5 0 1.5
-1.5 0 2.5
-3 0 0
3 0 0
0 0 3
-3 0 1
3 0 1
-1 0 3
1 0 3
-3.5 0 0.5
3.5 0 0.5
-2.5 0 2.5
2.5 0 2.5
-0.5 0 3.5
0.5 0 3.5
-3 0 2
3 0 2
-2 0 3
2 0 3
3.5 0 1.5
-3.5 0 1.5
-1.5 0 3.5
1.5 0 3.5
-4 0 0
4 0 0
0 0 4
-4 0 1
4 0 1
-1 0 4
1 0 4
-3 0 3
3 0 3
-3.5 0 2.5
3.5 0 2.5
-2.5 0 3.5
2.5 0 3.5
-4 0 2
4 0 2
-2 0 4
2 0 4
-4.5 0 0.5
4.5 0 0.5
-0.5 0 4.5
0.5 0 4.5
-4.5 5.55112e-17 1.5
4.5 0 1.5
-1.5 0 4.5
1.5 0 4.5
-3.5 0 3.5
3.5 0 3.5
-5 0 0
5 0 0
-4 0 3
4 0 3
-3 0 4
3 0 4
0 0 5
-5 0 1
5 0 1
-1 0 5
1 0 5
-4.5 -5.55112e-17 2.5
4.5 0 2.5
-2.5 0 4.5
2.5 0 4.5
-5 0 2
5 0 2
-2 0 5
2 0 5
5.5 0 0.5
-0.5 0 5.5
0.5 0 5.5
-4 0 4
4 0 4
5.5 0 1.5
-4.5 0 3.5
4.5 0 3.5
-3.5 0 4.5
3.5 0 4.5
-1.5 0 5.5
1.5 0 5.5
-5 0 3
5 0 3
-3 0 5
3 0 5
6 0 0
0 0 6
5.5 0 2.5
-2.5 0 5.5
2.5 0 5.5
6 0 1
-1 0 6
1 0 6
6 0 2
-2 0 6
2 0 6
-4.5 0 4.5
4.5 0 4.5
-5 0 4
5 0 4
-4 0 5
4 0 5
6.5 0 0.5
5.5 0 3.5
-3.5 0 5.5
3.5 0 5.5
-0.5 0 6.5
0.5 5.55112e-17 6.5
6.5 0 1.5
-1.5 0 6.5
1.5 0 6.5
6 0 3
-3 0 6
3 0 6
2.5 0 6.5
6.5 0 2.5
-2.5 0 6.5
7 0 0
0 0 7
7 0 1
-5 0 5
5 0 5
-1 0 7
1 0 7
5.5 0 4.5
-4.5 0 5.5
4.5 0 5.5
6 0 4
-4 0 6
4 0 6
7 0 2
-2 0 7
2 0 7
6.5 0 3.5
-3.5 0 6.5
3.5 0 6.5
7.5 0 0.5
-0.5 0 7.5
0.5 0 7.5
7 0 3
-3 0 7
3 0 7
7.5 0 1.5
-1.5 0 7.5
1.5 0 7.5
5.5 0 5.5
6 0 5
-5 0 6
5 0 6
7.5 0 2.5
6.5 0 4.5
-4.5 0 6.5
4.5 0 6.5
-2.5 0 7.5
2.5 0 7.5
8 0 0
0 0 8
8 0 1
7 0 4
-4 0 7
4 0 7
-1 0 8
1 0 8
8 0 2
-2 0 8
2 0 8
7.5 0 3.5
-3.5 0 7.5
3.5 0 7.5
6 0 6
8.5 0 0.5
6.5 0 5.5
5.5 0 6.5
8 0 3
-3 0 8
3 0 8
7 0 5
-5 0 7
5 0 7
8.5 0 1.5
7.5 0 4.5
-4.5 0 7.5
4.5 0 7.5
8.5 0 2.5
8 0 4
-4 0 8
4 0 8
9 0 0
9 0 1
8.5 0 3.5
6.5 0 6.5
9 0 2
7 0 6
6 0 7
7.5 0 5.5
5.5 0 7.5
8 0 5
-5 0 8
5 0 8
9 0 3
9.5 0 0.5
9.5 0 1.5
8.5 0 4.5
9.5 0 2.5
9 0 4
7 0 7
7.5 0 6.5
6.5 0 7.5
10 0 0
8 0 6
6 0 8
10 0 1
9.5 0 3.5
8.5 0 5.5
10 0 2
9 0 5
10 0 3
10.5 0 0.5
9.5 0 4.5
10.5 0 1.5
7.5 0 7.5
8 0 7
7 0 8
8.5 0 6.5
10 0 4
10.5 0 2.5
9 0 6
9.5 0 5.5
11 0 0
11 0 1
10.5 0 3.5
11 0 2
10 0 5
8 0 8
8.5 0 7.5
11 0 3
9 0 7
10.5 0 4.5
11.5 0 0.5
9.5 0 6.5
11.5 0 1.5
10 0 6
11 0 4
11.5 0 2.5
10.5 0 5.5
12 0 0
11.5 0 3.5
12 0 1
9 0 8
11 0 5
9.5 0 7.5
12 0 2
10 0 7
11.5 0 4.5
10.5 0 6.5
12 0 3
12.5 0 0.5
11 0 6
12.5 0 1.5
12 0 4
12.5 0 2.5
11.5 0 5.5
10 0 8
10.5 0 7.5
12.5 0 3.5
13 0 0
12 0 5
13 0 1
11 0 7
13 0 2
11.5 5.55112e-17 6.5
12.5 0 4.5
13 0 3
12 0 6
13.5 0 0.5
13.5 0 1.5
13 0 4
11 0 8
12.5 0 5.5
13.5 0 2.5
11.5 0 7.5
12 0 7
13 0 5
13.5 0 3.5
14 0 0
14 0 1
12.5 0 6.5
14 0 2
13.5 0 4.5
14 0 3
13 0 6
12 0 8
14.5 0 0.5
14 0 4
14.5 0 1.5
13.5 0 5.5
12.5 0 7.5
14.5 0 2.5
13 0 7
14 0 5
14.5 0 3.5
13.5 0 6.5
15 0 0
15 0 1
15 0 2
14.5 0 4.5
14 0 6
13 0 8
15 0 3
13.5 5.55112e-17 7.5
14.5 0 5.5
15 0 4
14 0 7
15 0 5
14.5 -5.55112e-17 6.5
14 0 8
15 0 6
14.5 5.55112e-17 7.5
15 0 7
15 0 8

POLYGONS 640 2560
3 79 86 69
3 86 55 69
3 55 52 69
3 52 79 69
3 52 55 38
3 55 34 38
3 34 31 38
3 31 52 38
3 31 34 22
3 34 18 22
3 18 12 22
3 12 31 22
3 12 18 9
3 18 6 9
3 6 3 9
3 3 12 9
3 3 6 1
3 6 4 1
3 4 0 1
3 0 3 1
3 0 4 2
3 4 7 2
3 7 5 2
3 5 0 2
3 5 7 10
3 7 17 10
3 17 13 10
3 13 5 10
3 13 17 23
3 17 35 23
3 35 32 23
3 32 13 23
3 32 35 39
3 35 56 39
3 56 53 39
3 53 32 39
3 53 56 70
3 56 87 70
3 87 80 70
3 80 53 70
3 80 87 98
3 87 119 98
3 119 114 98
3 114 80 98
3 114 119 131
3 119 148 131
3 148 146 131
3 146 114 131
3 146 148 165
3 148 186 165
3 186 184 165
3 184 146 165
3 184 186 199
3 186 217 199
3 217 216 199
3 216 184 199
3 216 217 229
3 217 240 229
3 240 237 229
3 237 216 229
3 237 240 246
3 240 258 246
3 258 257 246
3 257 237 246
3 257 258 267
3 258 276 267
3 276 274 267
3 274 257 267
3 274 276 285
3 276 296 285
3 296 294 285
3 294 274 285
3 294 296 303
3 296 314 303
3 314 313 303
3 313 294 303
3 313 314 321
3 314 332 321
3 332 331 321
3 331 313 321
3 86 94 73
3 94 65 73
3 65 55 73
3 55 86 73
3 55 65 49
3 65 44 49
3 44 34 49
3 34 55 49
3 34 44 29
3 44 26 29
3 26 18 29
3 18 34 29
3 18 26 16
3 26 19 16
3 19 6 16
3 6 18 16
3 6 19 8
3 19 14 8
3 14 4 8
3 4 6 8
3 4 14 11
3 14 20 11
3 20 7 11
3 7 4 11
3 7 20 15
3 20 25 15
3 25 17 15
3 17 7 15
3 17 25 27
3 25 45 27
3 45 35 27
3 35 17 27
3 35 45 48
3 45 66 48
3 66 56 48
3 56 35 48
3 56 66 74
3 66 95 74
3 95 87 74
3 87 56 74
3 87 95 103
3 95 122 103
3 122 119 103
3 119 87 103
3 119 122 137
3 122 159 137
3 159 148 137
3 148 119 137
3 148 159 171
3 159 192 171
3 192 186 171
3 186 148 171
3 186 192 208
3 192 220 208
3 220 217 208
3 217 186 208
3 217 220 230
3 220 243 230
3 243 240 230
3 240 217 230
3 240 243 248
3 243 260 248
3 260 258 248
3 258 240 248
3 258 260 269
3 260 280 269
3 280 276 269
3 276 258 269
3 276 280 287
3 280 298 287
3 298 296 287
3 296 276 287
3 296 298 304
3 298 316 304
3 316 314 304
3 314 296 304
3 314 316 323
3 316 333 323
3 333 332 323
3 332 314 323
3 94 110 90
3 110 81 90
3 81 65 90
3 65 94 90
3 65 81 61
3 81 59 61
3 59 44 61
3 44 65 61
3 44 59 40
3 59 46 40
3 46 26 40
3 26 44 40
3 26 46 30
3 46 36 30
3 36 19 30
3 19 26 30
3 19 36 21
3 36 33 21
3 33 14 21
3 14 19 21
3 14 33 24
3 33 37 24
3 37 20 24
3 20 14 24
3 20 37 28
3 37 47 28
3 47 25 28
3 25 20 28
3 25 47 41
3 47 60 41
3 60 45 41
3 45 25 41
3 45 60 62
3 60 82 62
3 82 66 62
3 66 45 62
3 66 82 91
3 82 111 91
3 111 95 91
3 95 66 91
3 95 111 116
3 111 140 116
3 140 122 116
3 122 95 116
3 122 140 144
3 140 168 144
3 168 159 144
3 159 122 144
3 159 168 178
3 168 202 178
3 202 192 178
3 192 159 178
3 192 202 212
3 202 228 212
3 228 220 212
3 220 192 212
3 220 228 232
3 228 245 232
3 245 243 232
3 243 220 232
3 243 245 254
3 245 264 254
3 264 260 254
3 260 243 254
3 260 264 272
3 264 284 272
3 284 280 272
3 280 260 272
3 280 284 289
3 284 301 289
3 301 298 289
3 298 280 289
3 298 301 308
3 301 318 308
3 318 316 308
3 316 298 308
3 316 318 326
3 318 337 326
3 337 333 326
3 333 316 326
3 110 127 104
3 127 101 104
3 101 81 104
3 81 110 104
3 81 101 77
3 101 83 77
3 83 59 77
3 59 81 77
3 59 83 63
3 83 67 63
3 67 46 63
3 46 59 63
3 46 67 50
3 67 57 50
3 57 36 50
3 36 46 50
3 36 57 42
3 57 54 42
3 54 33 42
3 33 36 42
3 33 54 43
3 54 58 43
3 58 37 43
3 37 33 43
3 37 58 51
3 58 68 51
3 68 47 51
3 47 37 51
3 47 68 64
3 68 84 64
3 84 60 64
3 60 47 64
3 60 84 78
3 84 102 78
3 102 82 78
3 82 60 78
3 82 102 105
3 102 128 105
3 128 111 105
3 111 82 105
3 111 128 132
3 128 156 132
3 156 140 132
3 140 111 132
3 140 156 162
3 156 187 162
3 187 168 162
3 168 140 162
3 168 187 195
3 187 213 195
3 213 202 195
3 202 168 195
3 202 213 218
3 213 233 218
3 233 228 218
3 228 202 218
3 228 233 241
3 233 253 241
3 253 245 241
3 245 228 241
3 245 253 259
3 253 271 259
3 271 264 259
3 264 245 259
3 264 271 275
3 271 288 275
3 288 284 275
3 284 264 275
3 284 288 293
3 288 305 293
3 305 301 293
3 301 284 293
3 301 305 312
3 305 322 312
3 322 318 312
3 318 301 312
3 318 322 329
3 322 340 329
3 340 337 329
3 337 318 329
3 127 149 125
3 149 129 125
3 129 101 125
3 101 127 125
3 101 129 106
3 129 112 106
3 112 83 106
3 83 101 106
3 83 112 92
3 112 96 92
3 96 67 92
3 67 83 92
3 67 96 75
3 96 88 75
3 88 57 75
3 57 67 75
3 57 88 71
3 88 85 71
3 85 54 71
3 54 57 71
3 54 85 72
3 85 89 72
3 89 58 72
3 58 54 72
3 58 89 76
3 89 97 76
3 97 68 76
3 68 58 76
3 68 97 93
3 97 113 93
3 113 84 93
3 84 68 93
3 84 113 107
3 113 130 107
3 130 102 107
3 102 84 107
3 102 130 126
3 130 150 126
3 150 128 126
3 128 102 126
3 128 150 153
3 150 175 153
3 175 156 153
3 156 128 153
3 156 175 179
3 175 205 179
3 205 187 179
3 187 156 179
3 187 205 209
3 205 225 209
3 225 213 209
3 213 187 209
3 213 225 231
3 225 244 231
3 244 233 231
3 233 213 231
3 233 244 247
3 244 261 247
3 261 253 247
3 253 233 247
3 253 261 266
3 261 278 266
3 278 271 266
3 271 253 266
3 271 278 282
3 278 295 282
3 295 288 282
3 288 271 282
3 288 295 300
3 295 311 300
3 311 305 300
3 305 288 300
3 305 311 317
3 311 328 317
3 328 322 317
3 322 305 317
3 322 328 334
3 328 342 334
3 342 340 334
3 340 322 334
3 149 176 154
3 176 157 154
3 157 129 154
3 129 149 154
3 129 157 133
3 157 141 133
3 141 112 133
3 112 129 133
3 112 141 117
3 141 123 117
3 123 96 117
3 96 112 117
3 96 123 108
3 123 120 108
3 120 88 108
3 88 96 108
3 88 120 99
3 120 115 99
3 115 85 99
3 85 88 99
3 85 115 100
3 115 121 100
3 121 89 100
3 89 85 100
3 89 121 109
3 121 124 109
3 124 97 109
3 97 89 109
3 97 124 118
3 124 142 118
3 142 113 118
3 113 97 118
3 113 142 134
3 142 158 134
3 158 130 134
3 130 113 134
3 130 158 155
3 158 177 155
3 177 150 155
3 150 130 155
3 150 177 174
3 177 198 174
3 198 175 174
3 175 150 174
3 175 198 200
3 198 221 200
3 221 205 200
3 205 175 200
3 205 221 223
3 221 238 223
3 238 225 223
3 225 205 223
3 225 238 242
3 238 255 242
3 255 244 242
3 244 225 242
3 244 255 256
3 255 270 256
3 270 261 256
3 261 244 256
3 261 270 273
3 270 286 273
3 286 278 273
3 278 261 273
3 278 286 290
3 286 302 290
3 302 295 290
3 295 278 290
3 295 302 307
3 302 319 307
3 319 311 307
3 311 295 307
3 311 319 324
3 319 335 324
3 335 328 324
3 328 311 324
3 328 335 339
3 335 345 339
3 345 342 339
3 342 328 339
3 176 206 180
3 206 188 180
3 188 157 180
3 157 176 180
3 157 188 163
3 188 169 163
3 169 141 163
3 141 157 163
3 141 169 145
3 169 160 145
3 160 123 145
3 123 141 145
3 123 160 138
3 160 151 138
3 151 120 138
3 120 123 138
3 120 151 135
3 151 147 135
3 147 115 135
3 115 120 135
3 115 147 136
3 147 152 136
3 152 121 136
3 121 115 136
3 121 152 139
3 152 161 139
3 161 124 139
3 124 121 139
3 124 161 143
3 161 170 143
3 170 142 143
3 142 124 143
3 142 170 164
3 170 189 164
3 189 158 164
3 158 142 164
3 158 189 181
3 189 207 181
3 207 177 181
3 177 158 181
3 177 207 201
3 207 222 201
3 222 198 201
3 198 177 201
3 198 222 219
3 222 234 219
3 234 221 219
3 221 198 219
3 221 234 235
3 234 250 235
3 250 238 235
3 238 221 235
3 238 250 252
3 250 265 252
3 265 255 252
3 255 238 252
3 255 265 268
3 265 281 268
3 281 270 268
3 270 255 268
3 270 281 283
3 281 297 283
3 297 286 283
3 286 270 283
3 286 297 299
3 297 310 299
3 310 302 299
3 302 286 299
3 302 310 315
3 310 327 315
3 327 319 315
3 319 302 315
3 319 327 330
3 327 341 330
3 341 335 330
3 335 319 330
3 335 341 343
3 341 347 343
3 347 345 343
3 345 335 343
3 206 226 210
3 226 214 210
3 214 188 210
3 188 206 210
3 188 214 196
3 214 203 196
3 203 169 196
3 169 188 196
3 169 203 182
3 203 193 182
3 193 160 182
3 160 169 182
3 160 193 172
3 193 190 172
3 190 151 172
3 151 160 172
3 151 190 166
3 190 185 166
3 185 147 166
3 147 151 166
3 147 185 167
3 185 191 167
3 191 152 167
3 152 147 167
3 152 191 173
3 191 194 173
3 194 161 173
3 161 152 173
3 161 194 183
3 194 204 183
3 204 170 183
3 170 161 183
3 170 204 197
3 204 215 197
3 215 189 197
3 189 170 197
3 189 215 211
3 215 227 211
3 227 207 211
3 207 189 211
3 207 227 224
3 227 239 224
3 239 222 224
3 222 207 224
3 222 239 236
3 239 251 236
3 251 234 236
3 234 222 236
3 234 251 249
3 251 262 249
3 262 250 249
3 250 234 249
3 250 262 263
3 262 277 263
3 277 265 263
3 265 250 263
3 265 277 279
3 277 291 279
3 291 281 279
3 281 265 279
3 281 291 292
3 291 306 292
3 306 297 292
3 297 281 292
3 297 306 309
3 306 320 309
3 320 310 309
3 310 297 309
3 310 320 325
3 320 336 325
3 336 327 325
3 327 310 325
3 327 336 338
3 336 344 338
3 344 341 338
3 341 327 338
3 341 344 346
3 344 348 346
3 348 347 346
3 347 341 346
POINT_DATA 349
FIELD attributes 1
U 3 349 float
20 0 0
20 -1.9187e-16 1.55175e-15
20 -4.33551e-16 1.12072e-15
20 0 0
20 -1.10279e-17 1.01199e-15
20 0 0
20 -2.37131e-17 9.27614e-16
20 -1.20306e-16 6.48088e-16
20 4.64964e-16 4.6606e-16
20 -3.39114e-16 1.20304e-15
20 -8.16014e-17 5.15529e-16
20 1.16345e-16 9.0942e-16
20 0 0
20 0 0
20 2.24677e-16 1.53472e-16
20 -8.24172e-17 4.66803e-17
20 -2.8833e-17 4.89598e-16
20 -5.94864e-16 1.2708e-16
20 -4.81061e-16 1.05786e-15
20 -3.8672e-17 9.94539e-17
20 -4.13655e-17 2.90941e-16
20 2.04268e-16 -6.36631e-16
20 -6.85203e-16 1.35315e-15
20 -1.17637e-15 4.67039e-16
20 1.1313e-16 -1.24961e-16
20 -5.28042e-16 -3.42571e-16
20 -5.0974e-16 5.80938e-16
20 -1.03907e-15 -5.20929e-16
20 -3.1252e-16 3.32623e-16
20 -8.71095e-16 1.18566e-15
20 -7.95087e-16 7.87881e-17
20 0 0
20 0 0
20 1.6422e-16 -3.15004e-16
20 -5.85673e-16 1.25679e-15
20 -1.26643e-15 -2.92593e-17
20 -6.07239e-17 -2.49873e-16
20 3.64961e-18 -4.81465e-17
20 -1.64577e-16 1.64216e-15
20 -1.3946e-15 2.40855e-16
20 -3.43946e-16 5.69701e-16
20 -6.7816e-16 -1.22866e-15
20 2.61355e-16 -1.96956e-16
20 7.81265e-17 -3.01471e-16
20 -5.84626e-16 4.86183e-16
20 -7.97996e-16 -8.18012e-16
20 -4.84316e-16 -6.88456e-18
20 -2.16792e-16 -6.45241e-16
20 -1.45567e-15 -3.04001e-16
20 -6.21818e-16 8.4617e-16
20 8.65684e-17 -2.44696e-16
20 1.35862e-16 -9.87779e-17
20 0 0
20 0 0
20 2.34476e-17 -1.49034e-16
20 -1.14872e-16 7.86288e-16
20 -9.09995e-16 -2.57373e-16
20 5.38046e-17 -2.96828e-16
20 1.10124e-16 -1.18004e-16
20 -7.81832e-16 -2.84201e-16
20 -3.24147e-16 -1.39586e-15
20 -5.01647e-16 -6.56804e-16
20 -1.90891e-17 -1.21846e-15
20 -8.848e-16 -4.31332e-16
20 -1.23482e-17 -1.58615e-15
20 -2.77288e-16 -3.82026e-17
20 -6.96367e-16 -7.54181e-16
20 -2.1461e-16 -5.24138e-16
20 1.07016e-17 -6.90095e-16
20 1.68779e-16 5.60275e-16
20 7.96319e-17 1.18698e-17
20 -3.29884e-16 -1.97706e-16
20 8.41923e-17 9.99949e-17
20 1.58126e-16 9.65468e-17
20 -8.69346e-16 -9.78214e-16
20 1.97178e-16 -5.47955e-16
20 1.42314e-16 -1.71763e-16
20 -1.39693e-15 -6.18368e-16
20 -5.86989e-16 -1.55019e-15
20 0 0
20 0 0
20 -5.99351e-16 -4.57018e-16
20 -4.86777e-16 -8.65031e-16
20 -7.16411e-16 -3.8999e-16
20 -2.62956e-16 -1.29312e-15
20 1.9077e-16 1.88122e-16
20 0 0
20 -4.56788e-16 -4.01787e-16
20 1.89055e-16 2.07076e-16
20 2.01733e-16 -1.89691e-16
20 -1.43814e-16 -4.38723e-16
20 -4.41367e-16 -5.16047e-16
20 -2.57386e-16 -8.7257e-16
20 -2.23021e-16 -9.03687e-16
20 0 0
20 -5.80799e-16 -3.71591e-16
20 -1.03727e-16 -1.71595e-16
20 3.62174e-16 -4.55123e-16
20 -4.16977e-16 -2.87637e-16
20 8.06052e-16 1.00644e-15
20 2.02718e-16 -1.56241e-16
20 -5.36342e-16 -1.12256e-16
20 -6.84654e-16 -9.54114e-16
20 -6.2046e-16 -3.53169e-16
20 -3.55011e-16 -1.14175e-16
20 -8.99664e-16 -1.75429e-16
20 -3.26525e-16 3.62312e-16
20 -2.29467e-16 -1.13244e-15
20 8.28743e-17 5.67526e-16
20 3.77708e-16 -5.30756e-16
20 0 0
20 -5.08408e-16 -1.36016e-16
20 -1.92737e-16 -4.94483e-17
20 2.5247e-16 -6.23368e-16
20 0 0
20 7.77482e-16 -2.55386e-16
20 -3.92023e-16 3.61065e-16
20 -4.37573e-16 1.66617e-16
20 1.15169e-15 -2.14287e-16
20 -1.00408e-15 -5.60594e-16
20 4.91313e-16 4.8185e-16
20 6.45346e-16 -8.90189e-16
20 -8.52834e-16 -3.18482e-16
20 -1.1692e-16 4.23204e-16
20 8.63852e-16 -6.6849e-16
20 -6.69011e-17 -7.87938e-17
20 -1.0225e-15 -9.58398e-16
20 0 0
20 -7.64753e-16 -5.61363e-16
20 1.587e-17 -9.38563e-17
20 -3.23075e-16 -8.30291e-16
20 -1.52938e-15 -5.35914e-16
20 -3.00578e-16 -2.13655e-16
20 2.50535e-16 1.45848e-16
20 3.10674e-16 -2.43059e-16
20 1.0199e-15 -2.05142e-16
20 1.08126e-15 -1.6666e-15
20 -1.44952e-15 -1.06566e-15
20 5.64207e-17 5.5858e-16
20 9.19706e-16 -1.20716e-15
20 -7.42523e-16 -2.57347e-16
20 -1.88973e-16 1.02556e-16
20 7.53019e-16 -2.04124e-16
20 1.0063e-15 -7.21757e-16
20 -9.49337e-16 -2.16169e-16
20 -1.69401e-16 4.00091e-16
20 0 0
20 7.98057e-16 -8.59597e-16
20 -1.69244e-15 -5.74194e-16
20 0 0
20 -7.0382e-16 -9.90902e-16
20 3.64539e-16 -1.7028e-17
20 6.64437e-16 -1.02136e-15
20 -8.36272e-16 -8.97969e-16
20 2.06371e-16 -8.04791e-16
20 -3.51009e-16 -9.87267e-16
20 -9.78744e-16 -7.90286e-16
20 1.99138e-17 -3.93606e-16
20 1.11437e-16 -3.11758e-16
20 -1.19408e-15 -5.77615e-16
20 -2.17987e-16 3.65892e-16
20 5.4047e-16 -6.00744e-16
20 -1.32816e-15 -9.60628e-16
20 -3.99452e-16 -3.02334e-16
20 5.43408e-16 3.62608e-16
20 -2.19852e-15 -2.6641e-17
20 6.03582e-16 -6.22903e-16
20 4.8749e-16 -9.43741e-16
20 -1.1103e-15 -7.18716e-16
20 -4.04579e-16 2.17485e-16
20 4.86326e-16 -7.94241e-17
20 -1.59234e-15 -6.68562e-16
20 -2.21748e-16 2.01353e-16
20 1.69298e-16 -2.67945e-16
20 -6.05504e-16 -1.11998e-15
20 -8.73592e-16 -1.01152e-15
20 0 0
20 -3.90875e-16 -8.57526e-16
20 -7.85126e-16 -3.60073e-16
20 -1.44997e-15 -1.08889e-15
20 2.22014e-17 -6.13145e-16
20 -5.73257e-17 -3.79315e-16
20 -5.3722e-16 3.03544e-16
20 6.65749e-17 -2.06115e-16
20 0 0
20 5.45536e-16 0
20 -1.91716e-15 3.96274e-17
20 -1.31015e-15 -1.30608e-15
20 -2.86722e-16 -4.59497e-17
20 3.23596e-16 7.88542e-17
20 1.90917e-16 0
20 3.28394e-16 0
20 -1.19829e-15 -4.16176e-16
20 -3.79484e-16 0
20 1.17936e-16 0
20 -1.37859e-15 -1.33799e-15
20 -5.12242e-16 4.68637e-16
20 3.29022e-16 2.47567e-16
20 -6.29801e-16 -9.80327e-16
20 -2.27402e-15 7.31622e-16
20 -6.02624e-16 -9.39259e-16
20 -5.49661e-16 -9.43547e-16
20 -9.88193e-16 -9.68453e-16
20 -5.24731e-16 0
20 1.97798e-16 0
20 -1.12008e-15 -1.29029e-15
20 0 0
20 1.60231e-16 -3.48294e-16
20 -1.60377e-15 1.22091e-16
20 -1.08389e-15 -1.8368e-15
20 -2.57396e-16 2.63043e-16
20 4.7928e-16 8.45567e-17
20 -8.11918e-16 -7.58159e-16
20 -1.2334e-15 -1.45299e-15
20 -3.84819e-16 0
20 4.04151e-16 0
20 0 0
20 -1.6763e-15 -1.08961e-16
20 -9.7714e-16 -1.41759e-15
20 -7.61416e-16 -9.18525e-16
20 -7.59546e-16 -5.89474e-16
20 -9.82445e-16 -1.04189e-15
20 -3.61676e-17 -4.8119e-16
20 -1.34384e-15 -1.2962e-15
20 7.6863e-16 -1.54872e-16
20 -1.44863e-15 -1.3851e-15
20 -1.28698e-16 0
20 6.23955e-16 0
20 -4.80909e-16 -6.53299e-16
20 -1.94572e-15 -7.10325e-17
20 -8.81684e-16 -1.21853e-15
20 -1.49399e-15 -1.21956e-15
20 2.59187e-16 -5.03299e-16
20 -1.01137e-15 -9.18394e-16
20 -4.75629e-16 -4.72583e-16
20 -1.2219e-15 -1.01359e-15
20 3.97776e-16 9.21845e-17
20 0 0
20 -1.49767e-15 -1.06475e-15
20 5.83203e-16 0
20 -1.46573e-15 -4.56259e-16
20 -3.93763e-16 6.58495e-17
20 -1.87279e-15 -1.18783e-15
20 -5.70122e-16 -7.35495e-16
20 -1.59348e-15 -1.28527e-15
20 -1.82506e-16 -6.52383e-16
20 -1.85952e-15 2.09681e-17
20 -1.18058e-15 -1.10228e-15
20 -1.17601e-15 -5.56443e-16
20 -3.16977e-16 -5.04052e-17
20 -1.01133e-15 -4.1686e-16
20 4.03997e-17 0
20 -1.55214e-15 -7.61369e-16
20 -6.11927e-16 -9.93647e-16
20 -4.81978e-16 -6.63711e-16
20 -1.59698e-15 -1.21162e-15
20 -1.82657e-15 -1.6314e-15
20 0 0
20 -1.20406e-15 -4.94542e-16
20 -1.13467e-16 -1.50837e-15
20 -7.25157e-16 -7.5138e-16
20 -1.23122e-15 -1.26497e-15
20 -6.3563e-16 0
20 -9.54283e-16 1.5792e-16
20 -4.39735e-16 -1.03269e-15
20 -1.02624e-15 -5.1127e-16
20 -7.59894e-16 -1.42979e-15
20 -9.6981e-16 -3.39072e-16
20 -1.13643e-15 -1.26589e-15
20 -8.10916e-16 -1.10362e-15
20 -1.34381e-15 -1.20904e-15
20 -6.91338e-16 -1.28762e-15
20 -4.31722e-16 -6.81746e-16
20 -1.15782e-15 -8.96413e-16
20 0 0
20 -7.31772e-16 -1.27694e-15
20 -1.01035e-15 -5.56073e-16
20 -7.08194e-16 0
20 -1.09147e-15 -9.7702e-16
20 -4.62105e-16 -1.75738e-16
20 -4.19152e-16 -5.88137e-16
20 -7.30767e-16 -6.94831e-16
20 -1.16022e-15 -9.35369e-16
20 -1.25443e-15 -1.04247e-15
20 -2.6641e-16 -5.53602e-16
20 -1.50135e-15 -1.24504e-16
20 -1.34418e-15 -9.75358e-16
20 -7.59337e-16 -6.57096e-16
20 -7.17906e-16 -7.79238e-16
20 3.25366e-16 8.99145e-17
20 -1.28794e-15 -6.46507e-16
20 -2.66103e-16 0
20 -7.0102e-17 -2.95226e-16
20 -2.2751e-16 -3.45631e-16
20 0 0
20 -9.19026e-16 -7.95588e-16
20 -1.31418e-15 1.05246e-16
20 -7.71666e-16 -7.80736e-16
20 -4.50185e-16 1.65272e-16
20 -1.67651e-15 -1.31605e-15
20 -7.52123e-16 -5.5901e-16
20 -1.44991e-16 -4.2994e-17
20 -1.11308e-15 -1.23405e-15
20 -2.07849e-15 5.99093e-16
20 -9.17531e-16 6.0349e-16
20 -4.38098e-16 -6.22233e-16
20 -7.78607e-17 0
20 -4.75821e-16 -1.04147e-15
20 -4.49238e-16 6.2478e-16
20 -8.56194e-17 -4.69205e-16
20 -8.05069e-16 -1.07057e-15
20 -6.48489e-16 -8.05613e-16
20 -2.28581e-16 -5.41039e-16
20 0 0
20 -1.69148e-15 5.14546e-16
20 -1.01204e-15 -1.93217e-15
20 -1.04707e-15 2.54676e-16
20 -5.44177e-16 -1.04325e-15
20 -5.32237e-16 -2.21938e-16
20 -9.06411e-16 -1.24845e-15
20 -2.65864e-16 0
20 -2.0781e-15 8.69355e-16
20 -3.4069e-16 -8.17635e-16
20 -1.6918e-15 -1.37533e-17
20 -8.21834e-16 -5.78725e-16
20 -4.4611e-16 -5.64847e-16
20 -1.12973e-15 -1.95812e-16
20 -1.02049e-15 -1.1441e-15
20 -6.53108e-16 -7.77115e-16
20 -3.21396e-16 -7.7568e-16
20 -1.31595e-15 -1.44143e-15
20 -1.03905e-15 4.34678e-16
20 -1.88495e-15 4.27801e-16
20 -1.41076e-15 -1.04783e-16
20 -2.68607e-16 -9.10568e-16
20 -1.08495e-15 -9.68364e-16
20 -8.76985e-16 0
20 -7.25564e-16 -4.85746e-16
20 -1.30786e-15 -6.37963e-16
20 -9.77815e-16 -5.75914e-16
20 -2.95001e-16 -8.43124e-16
20 -1.27625e-15 -8.94895e-16
20 -6.23211e-16 -7.43241e-16
20 -1.22421e-15 -1.27739e-15
20 -1.28242e-15 0
20 -1.10101e-15 -9.2665e-16
20 -1.25698e-15 -2.22798e-16
20 -1.2406e-15 -7.50092e-16
20 -1.25698e-15 -1.11399e-16
