# vtk DataFile Version 2.0
sampleSurface
ASCII
DATASET POLYDATA
POINTS 349 double
0 0 0
-0.5 -5.55112e-17 0.5
0.5 0 0.5
-1 0 0
0 0 1
1 0 0
-1 0 1
1 0 1
-0.5 0 1.5
-1.5 0 0.5
1.5 0 0.5
0.5 0 1.5
-2 0 0
2 0 0
0 0 2
1.5 0 1.5
-1.5 0 1.5
2 0 1
-2 0 1
-1 0 2
1 0 2
-0.5 0 2.5
-2.5 0 0.5
2.5 5.55112e-17 0.5
0.5 5.55112e-17 2.5
2 0 2
-2 0 2
2.5 0 1.5
1.5 2.77556e-17 2.5
-2.5 0 1.5
-1.5 0 2.5
-3 0 0
3 0 0
0 0 3
-3 0 1
3 0 1
-1 0 3
1 0 3
-3.5 0 0.5
3.5 0 0.5
-2.5 0 2.5
2.5 0 2.5
-0.5 0 3.5
0.5 0 3.5
-3 0 2
3 0 2
-2 0 3
2 0 3
3.5 0 1.5
-3.5 0 1.5
-1.5 0 3.5
1.5 0 3.5
-4 0 0
4 0 0
0 0 4
-4 0 1
4 0 1
-1 0 4
1 0 4
-3 0 3
3 0 3
-3.5 0 2.5
3.5 0 2.5
-2.5 0 3.5
2.5 0 3.5
-4 0 2
4 0 2
-2 0 4
2 0 4
-4.5 0 0.5
4.5 0 0.5
-0.5 0 4.5
0.5 0 4.5
-4.5 5.55112e-17 1.5
4.5 0 1.5
-1.5 0 4.5
1.5 0 4.5
-3.5 0 3.5
3.5 0 3.5
-5 0 0
5 0 0
-4 0 3
4 0 3
-3 0 4
3 0 4
0 0 5
-5 0 1
5 0 1
-1 0 5
1 0 5
-4.5 -5.55112e-17 2.5
4.5 0 2.5
-2.5 0 4.5
2.5 0 4.5
-5 0 2
5 0 2
-2 0 5
2 0 5
5.5 0 0.5
-0.5 0 5.5
0.5 0 5.5
-4 0 4
4 0 4
5.5 0 1.5
-4.5 0 3.5
4.5 0 3.5
-3.5 0 4.5
3.5 0 4.5
-1.5 0 5.5
1.5 0 5.5
-5 0 3
5 0 3
-3 0 5
3 0 5
6 0 0
0 0 6
5.5 0 2.5
-2.5 0 5.5
2.5 0 5.5
6 0 1
-1 0 6
1 0 6
6 0 2
-2 0 6
2 0 6
-4.5 0 4.5
4.5 0 4.5
-5 0 4
5 0 4
-4 0 5
4 0 5
6.5 0 0.5
5.5 0 3.5
-3.5 0 5.5
3.5 0 5.5
-0.5 0 6.5
0.5 5.55112e-17 6.5
6.5 0 1.5
-1.5 0 6.5
1.5 0 6.5
6 0 3
-3 0 6
3 0 6
2.5 0 6.5
6.5 0 2.5
-2.5 0 6.5
7 0 0
0 0 7
7 0 1
-5 0 5
5 0 5
-1 0 7
1 0 7
5.5 0 4.5
-4.5 0 5.5
4.5 0 5.5
6 0 4
-4 0 6
4 0 6
7 0 2
-2 0 7
2 0 7
6.5 0 3.5
-3.5 0 6.5
3.5 0 6.5
7.5 0 0.5
-0.5 0 7.5
0.5 0 7.5
7 0 3
-3 0 7
3 0 7
7.5 0 1.5
-1.5 0 7.5
1.5 0 7.5
5.5 0 5.5
6 0 5
-5 0 6
5 0 6
7.5 0 2.5
6.5 0 4.5
-4.5 0 6.5
4.5 0 6.5
-2.5 0 7.5
2.5 0 7.5
8 0 0
0 0 8
8 0 1
7 0 4
-4 0 7
4 0 7
-1 0 8
1 0 8
8 0 2
-2 0 8
2 0 8
7.5 0 3.5
-3.5 0 7.5
3.5 0 7.5
6 0 6
8.5 0 0.5
6.5 0 5.5
5.5 0 6.5
8 0 3
-3 0 8
3 0 8
7 0 5
-5 0 7
5 0 7
8.5 0 1.5
7.5 0 4.5
-4.5 0 7.5
4.5 0 7.5
8.5 0 2.5
8 0 4
-4 0 8
4 0 8
9 0 0
9 0 1
8.5 0 3.5
6.5 0 6.5
9 0 2
7 0 6
6 0 7
7.5 0 5.5
5.5 0 7.5
8 0 5
-5 0 8
5 0 8
9 0 3
9.5 0 0.5
9.5 0 1.5
8.5 0 4.5
9.5 0 2.5
9 0 4
7 0 7
7.5 0 6.5
6.5 0 7.5
10 0 0
8 0 6
6 0 8
10 0 1
9.5 0 3.5
8.5 0 5.5
10 0 2
9 0 5
10 0 3
10.5 0 0.5
9.5 0 4.5
10.5 0 1.5
7.5 0 7.5
8 0 7
7 0 8
8.5 0 6.5
10 0 4
10.5 0 2.5
9 0 6
9.5 0 5.5
11 0 0
11 0 1
10.5 0 3.5
11 0 2
10 0 5
8 0 8
8.5 0 7.5
11 0 3
9 0 7
10.5 0 4.5
11.5 0 0.5
9.5 0 6.5
11.5 0 1.5
10 0 6
11 0 4
11.5 0 2.5
10.5 0 5.5
12 0 0
11.5 0 3.5
12 0 1
9 0 8
11 0 5
9.5 0 7.5
12 0 2
10 0 7
11.5 0 4.5
10.5 0 6.5
12 0 3
12.5 0 0.5
11 0 6
12.5 0 1.5
12 0 4
12.5 0 2.5
11.5 0 5.5
10 0 8
10.5 0 7.5
12.5 0 3.5
13 0 0
12 0 5
13 0 1
11 0 7
13 0 2
11.5 5.55112e-17 6.5
12.5 0 4.5
13 0 3
12 0 6
13.5 0 0.5
13.5 0 1.5
13 0 4
11 0 8
12.5 0 5.5
13.5 0 2.5
11.5 0 7.5
12 0 7
13 0 5
13.5 0 3.5
14 0 0
14 0 1
12.5 0 6.5
14 0 2
13.5 0 4.5
14 0 3
13 0 6
12 0 8
14.5 0 0.5
14 0 4
14.5 0 1.5
13.5 0 5.5
12.5 0 7.5
14.5 0 2.5
13 0 7
14 0 5
14.5 0 3.5
13.5 0 6.5
15 0 0
15 0 1
15 0 2
14.5 0 4.5
14 0 6
13 0 8
15 0 3
13.5 5.55112e-17 7.5
14.5 0 5.5
15 0 4
14 0 7
15 0 5
14.5 -5.55112e-17 6.5
14 0 8
15 0 6
14.5 5.55112e-17 7.5
15 0 7
15 0 8

POLYGONS 640 2560
3 79 86 69
3 86 55 69
3 55 52 69
3 52 79 69
3 52 55 38
3 55 34 38
3 34 31 38
3 31 52 38
3 31 34 22
3 34 18 22
3 18 12 22
3 12 31 22
3 12 18 9
3 18 6 9
3 6 3 9
3 3 12 9
3 3 6 1
3 6 4 1
3 4 0 1
3 0 3 1
3 0 4 2
3 4 7 2
3 7 5 2
3 5 0 2
3 5 7 10
3 7 17 10
3 17 13 10
3 13 5 10
3 13 17 23
3 17 35 23
3 35 32 23
3 32 13 23
3 32 35 39
3 35 56 39
3 56 53 39
3 53 32 39
3 53 56 70
3 56 87 70
3 87 80 70
3 80 53 70
3 80 87 98
3 87 119 98
3 119 114 98
3 114 80 98
3 114 119 131
3 119 148 131
3 148 146 131
3 146 114 131
3 146 148 165
3 148 186 165
3 186 184 165
3 184 146 165
3 184 186 199
3 186 217 199
3 217 216 199
3 216 184 199
3 216 217 229
3 217 240 229
3 240 237 229
3 237 216 229
3 237 240 246
3 240 258 246
3 258 257 246
3 257 237 246
3 257 258 267
3 258 276 267
3 276 274 267
3 274 257 267
3 274 276 285
3 276 296 285
3 296 294 285
3 294 274 285
3 294 296 303
3 296 314 303
3 314 313 303
3 313 294 303
3 313 314 321
3 314 332 321
3 332 331 321
3 331 313 321
3 86 94 73
3 94 65 73
3 65 55 73
3 55 86 73
3 55 65 49
3 65 44 49
3 44 34 49
3 34 55 49
3 34 44 29
3 44 26 29
3 26 18 29
3 18 34 29
3 18 26 16
3 26 19 16
3 19 6 16
3 6 18 16
3 6 19 8
3 19 14 8
3 14 4 8
3 4 6 8
3 4 14 11
3 14 20 11
3 20 7 11
3 7 4 11
3 7 20 15
3 20 25 15
3 25 17 15
3 17 7 15
3 17 25 27
3 25 45 27
3 45 35 27
3 35 17 27
3 35 45 48
3 45 66 48
3 66 56 48
3 56 35 48
3 56 66 74
3 66 95 74
3 95 87 74
3 87 56 74
3 87 95 103
3 95 122 103
3 122 119 103
3 119 87 103
3 119 122 137
3 122 159 137
3 159 148 137
3 148 119 137
3 148 159 171
3 159 192 171
3 192 186 171
3 186 148 171
3 186 192 208
3 192 220 208
3 220 217 208
3 217 186 208
3 217 220 230
3 220 243 230
3 243 240 230
3 240 217 230
3 240 243 248
3 243 260 248
3 260 258 248
3 258 240 248
3 258 260 269
3 260 280 269
3 280 276 269
3 276 258 269
3 276 280 287
3 280 298 287
3 298 296 287
3 296 276 287
3 296 298 304
3 298 316 304
3 316 314 304
3 314 296 304
3 314 316 323
3 316 333 323
3 333 332 323
3 332 314 323
3 94 110 90
3 110 81 90
3 81 65 90
3 65 94 90
3 65 81 61
3 81 59 61
3 59 44 61
3 44 65 61
3 44 59 40
3 59 46 40
3 46 26 40
3 26 44 40
3 26 46 30
3 46 36 30
3 36 19 30
3 19 26 30
3 19 36 21
3 36 33 21
3 33 14 21
3 14 19 21
3 14 33 24
3 33 37 24
3 37 20 24
3 20 14 24
3 20 37 28
3 37 47 28
3 47 25 28
3 25 20 28
3 25 47 41
3 47 60 41
3 60 45 41
3 45 25 41
3 45 60 62
3 60 82 62
3 82 66 62
3 66 45 62
3 66 82 91
3 82 111 91
3 111 95 91
3 95 66 91
3 95 111 116
3 111 140 116
3 140 122 116
3 122 95 116
3 122 140 144
3 140 168 144
3 168 159 144
3 159 122 144
3 159 168 178
3 168 202 178
3 202 192 178
3 192 159 178
3 192 202 212
3 202 228 212
3 228 220 212
3 220 192 212
3 220 228 232
3 228 245 232
3 245 243 232
3 243 220 232
3 243 245 254
3 245 264 254
3 264 260 254
3 260 243 254
3 260 264 272
3 264 284 272
3 284 280 272
3 280 260 272
3 280 284 289
3 284 301 289
3 301 298 289
3 298 280 289
3 298 301 308
3 301 318 308
3 318 316 308
3 316 298 308
3 316 318 326
3 318 337 326
3 337 333 326
3 333 316 326
3 110 127 104
3 127 101 104
3 101 81 104
3 81 110 104
3 81 101 77
3 101 83 77
3 83 59 77
3 59 81 77
3 59 83 63
3 83 67 63
3 67 46 63
3 46 59 63
3 46 67 50
3 67 57 50
3 57 36 50
3 36 46 50
3 36 57 42
3 57 54 42
3 54 33 42
3 33 36 42
3 33 54 43
3 54 58 43
3 58 37 43
3 37 33 43
3 37 58 51
3 58 68 51
3 68 47 51
3 47 37 51
3 47 68 64
3 68 84 64
3 84 60 64
3 60 47 64
3 60 84 78
3 84 102 78
3 102 82 78
3 82 60 78
3 82 102 105
3 102 128 105
3 128 111 105
3 111 82 105
3 111 128 132
3 128 156 132
3 156 140 132
3 140 111 132
3 140 156 162
3 156 187 162
3 187 168 162
3 168 140 162
3 168 187 195
3 187 213 195
3 213 202 195
3 202 168 195
3 202 213 218
3 213 233 218
3 233 228 218
3 228 202 218
3 228 233 241
3 233 253 241
3 253 245 241
3 245 228 241
3 245 253 259
3 253 271 259
3 271 264 259
3 264 245 259
3 264 271 275
3 271 288 275
3 288 284 275
3 284 264 275
3 284 288 293
3 288 305 293
3 305 301 293
3 301 284 293
3 301 305 312
3 305 322 312
3 322 318 312
3 318 301 312
3 318 322 329
3 322 340 329
3 340 337 329
3 337 318 329
3 127 149 125
3 149 129 125
3 129 101 125
3 101 127 125
3 101 129 106
3 129 112 106
3 112 83 106
3 83 101 106
3 83 112 92
3 112 96 92
3 96 67 92
3 67 83 92
3 67 96 75
3 96 88 75
3 88 57 75
3 57 67 75
3 57 88 71
3 88 85 71
3 85 54 71
3 54 57 71
3 54 85 72
3 85 89 72
3 89 58 72
3 58 54 72
3 58 89 76
3 89 97 76
3 97 68 76
3 68 58 76
3 68 97 93
3 97 113 93
3 113 84 93
3 84 68 93
3 84 113 107
3 113 130 107
3 130 102 107
3 102 84 107
3 102 130 126
3 130 150 126
3 150 128 126
3 128 102 126
3 128 150 153
3 150 175 153
3 175 156 153
3 156 128 153
3 156 175 179
3 175 205 179
3 205 187 179
3 187 156 179
3 187 205 209
3 205 225 209
3 225 213 209
3 213 187 209
3 213 225 231
3 225 244 231
3 244 233 231
3 233 213 231
3 233 244 247
3 244 261 247
3 261 253 247
3 253 233 247
3 253 261 266
3 261 278 266
3 278 271 266
3 271 253 266
3 271 278 282
3 278 295 282
3 295 288 282
3 288 271 282
3 288 295 300
3 295 311 300
3 311 305 300
3 305 288 300
3 305 311 317
3 311 328 317
3 328 322 317
3 322 305 317
3 322 328 334
3 328 342 334
3 342 340 334
3 340 322 334
3 149 176 154
3 176 157 154
3 157 129 154
3 129 149 154
3 129 157 133
3 157 141 133
3 141 112 133
3 112 129 133
3 112 141 117
3 141 123 117
3 123 96 117
3 96 112 117
3 96 123 108
3 123 120 108
3 120 88 108
3 88 96 108
3 88 120 99
3 120 115 99
3 115 85 99
3 85 88 99
3 85 115 100
3 115 121 100
3 121 89 100
3 89 85 100
3 89 121 109
3 121 124 109
3 124 97 109
3 97 89 109
3 97 124 118
3 124 142 118
3 142 113 118
3 113 97 118
3 113 142 134
3 142 158 134
3 158 130 134
3 130 113 134
3 130 158 155
3 158 177 155
3 177 150 155
3 150 130 155
3 150 177 174
3 177 198 174
3 198 175 174
3 175 150 174
3 175 198 200
3 198 221 200
3 221 205 200
3 205 175 200
3 205 221 223
3 221 238 223
3 238 225 223
3 225 205 223
3 225 238 242
3 238 255 242
3 255 244 242
3 244 225 242
3 244 255 256
3 255 270 256
3 270 261 256
3 261 244 256
3 261 270 273
3 270 286 273
3 286 278 273
3 278 261 273
3 278 286 290
3 286 302 290
3 302 295 290
3 295 278 290
3 295 302 307
3 302 319 307
3 319 311 307
3 311 295 307
3 311 319 324
3 319 335 324
3 335 328 324
3 328 311 324
3 328 335 339
3 335 345 339
3 345 342 339
3 342 328 339
3 176 206 180
3 206 188 180
3 188 157 180
3 157 176 180
3 157 188 163
3 188 169 163
3 169 141 163
3 141 157 163
3 141 169 145
3 169 160 145
3 160 123 145
3 123 141 145
3 123 160 138
3 160 151 138
3 151 120 138
3 120 123 138
3 120 151 135
3 151 147 135
3 147 115 135
3 115 120 135
3 115 147 136
3 147 152 136
3 152 121 136
3 121 115 136
3 121 152 139
3 152 161 139
3 161 124 139
3 124 121 139
3 124 161 143
3 161 170 143
3 170 142 143
3 142 124 143
3 142 170 164
3 170 189 164
3 189 158 164
3 158 142 164
3 158 189 181
3 189 207 181
3 207 177 181
3 177 158 181
3 177 207 201
3 207 222 201
3 222 198 201
3 198 177 201
3 198 222 219
3 222 234 219
3 234 221 219
3 221 198 219
3 221 234 235
3 234 250 235
3 250 238 235
3 238 221 235
3 238 250 252
3 250 265 252
3 265 255 252
3 255 238 252
3 255 265 268
3 265 281 268
3 281 270 268
3 270 255 268
3 270 281 283
3 281 297 283
3 297 286 283
3 286 270 283
3 286 297 299
3 297 310 299
3 310 302 299
3 302 286 299
3 302 310 315
3 310 327 315
3 327 319 315
3 319 302 315
3 319 327 330
3 327 341 330
3 341 335 330
3 335 319 330
3 335 341 343
3 341 347 343
3 347 345 343
3 345 335 343
3 206 226 210
3 226 214 210
3 214 188 210
3 188 206 210
3 188 214 196
3 214 203 196
3 203 169 196
3 169 188 196
3 169 203 182
3 203 193 182
3 193 160 182
3 160 169 182
3 160 193 172
3 193 190 172
3 190 151 172
3 151 160 172
3 151 190 166
3 190 185 166
3 185 147 166
3 147 151 166
3 147 185 167
3 185 191 167
3 191 152 167
3 152 147 167
3 152 191 173
3 191 194 173
3 194 161 173
3 161 152 173
3 161 194 183
3 194 204 183
3 204 170 183
3 170 161 183
3 170 204 197
3 204 215 197
3 215 189 197
3 189 170 197
3 189 215 211
3 215 227 211
3 227 207 211
3 207 189 211
3 207 227 224
3 227 239 224
3 239 222 224
3 222 207 224
3 222 239 236
3 239 251 236
3 251 234 236
3 234 222 236
3 234 251 249
3 251 262 249
3 262 250 249
3 250 234 249
3 250 262 263
3 262 277 263
3 277 265 263
3 265 250 263
3 265 277 279
3 277 291 279
3 291 281 279
3 281 265 279
3 281 291 292
3 291 306 292
3 306 297 292
3 297 281 292
3 297 306 309
3 306 320 309
3 320 310 309
3 310 297 309
3 310 320 325
3 320 336 325
3 336 327 325
3 327 310 325
3 327 336 338
3 336 344 338
3 344 341 338
3 341 327 338
3 341 344 346
3 344 348 346
3 348 347 346
3 347 341 346
POINT_DATA 349
FIELD attributes 1
U 3 349 float
20 0 0
20 -4.22213e-16 8.56363e-16
20 -1.08961e-15 1.07724e-15
20 0 0
20 -8.27357e-16 1.07364e-15
20 0 0
20 2.40559e-16 7.29575e-16
20 -8.08579e-16 8.11977e-16
20 -6.21217e-16 1.05501e-15
20 8.02804e-16 4.26759e-16
20 -4.80016e-16 3.72263e-16
20 -1.17638e-15 1.30596e-15
20 0 0
20 0 0
20 -2.49206e-16 1.05907e-15
20 -4.88301e-16 4.92438e-16
20 1.20286e-15 5.80168e-16
20 -1.72008e-17 4.31723e-16
20 9.00478e-16 2.54504e-16
20 6.29248e-16 9.12613e-16
20 -3.66339e-16 8.01776e-16
20 6.40697e-16 1.18081e-15
20 2.96797e-16 1.28277e-16
20 7.39703e-16 4.00484e-16
20 1.60082e-16 6.94509e-16
20 6.57756e-17 3.50782e-16
20 1.22432e-15 3.98847e-16
20 1.59811e-16 4.61707e-16
20 3.92472e-17 7.1419e-16
20 1.29945e-15 -1.17188e-16
20 1.29465e-15 8.3446e-16
20 0 0
20 0 0
20 4.89684e-16 9.1183e-16
20 8.32507e-16 9.16156e-17
20 -3.05787e-17 3.77489e-16
20 8.40751e-16 8.23993e-16
20 4.08343e-16 6.13389e-16
20 8.97623e-16 7.11712e-16
20 -3.7144e-18 3.60452e-16
20 1.10031e-15 2.97949e-16
20 5.52345e-16 -2.65209e-16
20 6.79906e-16 1.00495e-15
20 4.78051e-16 7.67047e-16
20 1.05756e-15 -1.70603e-16
20 -1.43328e-16 -7.91848e-17
20 9.20523e-16 3.42812e-16
20 6.07451e-16 6.03492e-17
20 -1.01811e-15 2.87312e-16
20 8.36158e-16 -3.56338e-16
20 7.47748e-16 2.7575e-16
20 9.5599e-16 2.77809e-16
20 0 0
20 0 0
20 5.68004e-16 9.61402e-16
20 6.47752e-16 2.07548e-16
20 -7.13895e-16 -1.41156e-16
20 8.47518e-16 6.32744e-16
20 6.27949e-16 7.01478e-16
20 7.62922e-16 -5.51673e-17
20 3.90321e-16 -7.22426e-16
20 9.94345e-16 -5.06835e-16
20 -2.67353e-16 -8.00549e-16
20 5.39384e-16 -3.69091e-17
20 8.82223e-16 -4.85393e-16
20 5.19632e-16 -2.67662e-16
20 -6.27496e-16 -4.96744e-16
20 9.27021e-16 7.0743e-17
20 4.73087e-16 3.9954e-17
20 6.49046e-16 3.99925e-16
20 -7.00738e-16 -4.41135e-16
20 6.46765e-16 1.0556e-15
20 4.67292e-16 1.01802e-15
20 2.0818e-16 7.48913e-17
20 -1.13301e-15 -7.71255e-16
20 1.31565e-15 1.94683e-16
20 6.10464e-16 7.43042e-16
20 4.17655e-16 2.51261e-17
20 3.9407e-16 -1.33855e-15
20 0 0
20 0 0
20 3.50651e-16 -1.94756e-16
20 1.48293e-17 -7.7263e-16
20 8.04294e-16 5.36668e-17
20 -3.25074e-17 -6.69291e-16
20 3.55474e-16 2.75355e-16
20 0 0
20 -8.56655e-16 -8.1696e-16
20 7.87096e-16 2.39145e-16
20 3.34001e-16 2.38251e-16
20 3.98452e-17 -2.82368e-16
20 -9.15031e-17 -7.02483e-16
20 1.1053e-15 -1.50552e-16
20 -5.56329e-16 -3.75642e-16
20 0 0
20 -4.79845e-16 -7.83574e-16
20 9.67819e-16 -5.37012e-17
20 2.35812e-17 -1.52796e-16
20 -1.11613e-15 -8.18111e-16
20 4.23293e-16 -5.15722e-16
20 -1.15454e-16 -4.5647e-16
20 4.41226e-16 1.48544e-16
20 -3.19191e-16 -5.6368e-16
20 -4.76738e-16 -1.23734e-15
20 -4.92413e-17 -1.49461e-17
20 2.4103e-17 -2.48938e-16
20 1.15484e-15 3.77002e-16
20 -8.49994e-16 -4.77581e-16
20 7.62671e-16 2.22024e-16
20 3.73703e-16 -3.51582e-16
20 0 0
20 -2.41288e-16 -4.56098e-16
20 1.10921e-15 -2.21954e-16
20 -4.35441e-16 -5.68547e-16
20 0 0
20 1.34057e-16 -1.15487e-15
20 -2.18125e-16 -4.2322e-16
20 6.87655e-16 -4.8096e-16
20 -3.33513e-16 -6.27001e-16
20 -6.64797e-16 -8.31843e-16
20 4.61351e-16 -6.00597e-16
20 -1.03015e-16 -1.11532e-15
20 -3.34983e-16 -4.15499e-16
20 7.90056e-16 -3.36829e-16
20 -5.05115e-16 -8.65698e-16
20 2.4165e-16 2.06995e-16
20 -8.44943e-16 -1.89651e-16
20 0 0
20 -5.6099e-16 -4.20643e-16
20 8.09982e-16 -2.29187e-16
20 -5.0067e-16 -5.98148e-16
20 -5.23152e-16 -5.95191e-16
20 -6.79628e-16 -4.49749e-16
20 1.48906e-15 -6.33306e-16
20 -1.92749e-18 -7.93965e-16
20 3.22705e-16 -1.77609e-15
20 -9.4315e-17 -1.87121e-15
20 -5.43166e-16 -6.76731e-16
20 3.36737e-16 -3.32602e-16
20 -5.75995e-16 -1.78202e-15
20 -3.66612e-16 -1.97369e-16
20 1.31471e-15 -7.65958e-16
20 -6.58793e-16 -8.60612e-16
20 -1.48466e-15 -7.02189e-16
20 -1.01905e-16 6.75295e-16
20 1.37316e-15 -7.55776e-16
20 0 0
20 2.648e-16 -1.2436e-15
20 -6.47111e-16 -3.1825e-16
20 0 0
20 -4.37026e-16 -7.89e-16
20 1.91651e-16 -6.35844e-16
20 -1.96434e-16 -1.27453e-15
20 -7.43492e-16 -7.94232e-16
20 3.54381e-16 -8.67438e-16
20 -3.05815e-16 -9.31395e-16
20 -5.80158e-16 -7.51034e-16
20 1.08394e-15 -8.82082e-16
20 -3.66694e-16 -1.09694e-15
20 -4.56204e-16 2.84672e-16
20 5.37412e-16 -1.63352e-16
20 -8.73621e-16 -8.51513e-16
20 -4.66791e-16 -5.91801e-16
20 1.70897e-15 -1.19379e-15
20 -8.15074e-16 -1.3193e-15
20 -6.38902e-16 -2.95671e-16
20 7.38433e-16 -4.75077e-16
20 9.23772e-17 -8.52016e-16
20 -2.46904e-16 -4.27999e-17
20 1.48337e-15 -3.0015e-16
20 -1.14374e-15 -7.37034e-16
20 -8.83223e-16 2.94594e-16
20 -6.31273e-16 4.03905e-17
20 -2.07804e-16 -5.92897e-16
20 1.46148e-16 -1.24072e-15
20 -2.92784e-16 -8.68005e-16
20 0 0
20 -3.15314e-16 -1.19884e-15
20 -2.96523e-16 8.45529e-16
20 -4.30722e-16 -1.16835e-15
20 7.83339e-16 -8.33793e-16
20 -3.4396e-16 -1.34311e-15
20 1.07102e-15 3.94578e-16
20 -1.22603e-15 -3.28947e-16
20 0 0
20 4.15405e-16 0
20 -9.84038e-16 2.30891e-16
20 -4.19877e-16 -1.09909e-15
20 1.18333e-15 -3.77667e-16
20 -3.79728e-16 -8.89986e-16
20 5.358e-17 0
20 -5.77133e-17 0
20 -8.84432e-16 5.50182e-16
20 2.19875e-16 0
20 -7.16917e-16 0
20 -1.22397e-16 -1.10022e-15
20 1.78035e-15 3.54388e-16
20 -1.04918e-15 -5.97704e-16
20 -3.0317e-16 -6.85492e-16
20 -1.00246e-15 2.71811e-16
20 -1.43071e-16 -2.68711e-16
20 -7.57628e-16 -1.28015e-15
20 -3.7425e-16 -3.31914e-16
20 1.42568e-15 0
20 -1.13761e-15 0
20 -4.51489e-16 -8.80249e-16
20 0 0
20 4.74547e-17 -7.78373e-16
20 -1.41157e-15 6.5283e-16
20 -6.59599e-16 -1.53597e-15
20 4.6066e-16 1.62526e-16
20 6.89305e-16 -2.99835e-16
20 -9.46414e-16 4.07773e-16
20 -4.3938e-16 -1.50251e-15
20 1.1205e-15 0
20 -1.79939e-16 0
20 0 0
20 -1.22989e-15 2.28576e-16
20 -1.31666e-16 -1.48073e-15
20 -4.58127e-16 4.76121e-17
20 -1.16733e-15 2.58229e-16
20 -4.86713e-16 -3.69844e-16
20 -3.3909e-17 -2.61466e-16
20 -5.72562e-16 -5.47957e-16
20 6.02102e-16 -1.90401e-16
20 -6.3632e-16 -1.08869e-15
20 2.3033e-16 0
20 6.45704e-16 0
20 -6.66189e-16 -5.42321e-16
20 -1.2929e-15 6.21824e-17
20 -1.21261e-15 -7.25189e-17
20 -8.43858e-16 -1.89309e-15
20 -1.09873e-15 4.48328e-17
20 -4.87375e-16 -1.53298e-15
20 -2.31274e-16 -1.24132e-16
20 -7.73094e-16 -7.10319e-16
20 4.78017e-16 3.77071e-16
20 0 0
20 -5.13563e-16 -3.83334e-16
20 5.40059e-16 0
20 -1.31754e-15 -2.83405e-16
20 -4.87942e-16 -1.14116e-15
20 -4.69261e-16 -3.77747e-16
20 -1.14267e-15 -3.92543e-16
20 -5.35657e-16 -1.27442e-15
20 -9.27722e-16 -1.10075e-15
20 -1.63459e-15 -3.63546e-16
20 -4.86034e-16 -1.61695e-15
20 -1.13007e-15 -7.59735e-16
20 -1.71891e-16 -2.10892e-16
20 -1.64925e-16 -1.65759e-16
20 1.53063e-16 0
20 -2.39333e-16 1.02687e-16
20 -5.65201e-16 -1.84604e-15
20 -1.12926e-15 -7.82751e-16
20 -3.09168e-16 -5.10507e-16
20 -3.43474e-16 -1.2099e-15
20 0 0
20 -1.50306e-15 -7.59436e-16
20 -9.94952e-16 -2.52391e-15
20 -1.14176e-15 -8.50082e-16
20 -4.02625e-16 -1.26961e-15
20 1.76364e-16 0
20 5.24619e-16 1.55489e-16
20 -1.05181e-15 -1.45957e-15
20 1.17879e-16 -5.55087e-18
20 -2.91875e-16 -2.10213e-15
20 -2.17995e-15 -6.82409e-16
20 -1.84605e-16 -5.57066e-16
20 -1.06764e-15 -1.23205e-15
20 -4.21034e-16 -4.78751e-16
20 -6.67199e-16 -2.09029e-15
20 -1.24008e-15 -6.25786e-16
20 -4.89117e-16 -1.49454e-16
20 0 0
20 -8.42937e-16 -1.90584e-15
20 -1.54207e-15 -1.03939e-15
20 4.47727e-16 0
20 -5.91158e-16 -1.0438e-15
20 3.70835e-16 2.76687e-16
20 -1.13835e-15 -8.69157e-16
20 -6.65055e-17 -7.28046e-19
20 -5.39032e-16 -1.82926e-15
20 -6.6694e-16 1.41762e-18
20 -1.0141e-15 -6.43566e-16
20 -1.69555e-15 -6.43342e-16
20 -6.63394e-16 -3.27571e-16
20 -1.22512e-15 -1.59977e-15
20 -7.63294e-16 -1.2814e-15
20 -1.02056e-15 -1.90179e-17
20 -1.04461e-15 -9.43662e-17
20 2.92762e-16 0
20 2.14688e-16 2.7605e-16
20 -9.52822e-16 -2.36163e-17
20 0 0
20 -9.70421e-16 -1.10938e-15
20 -1.75374e-15 -6.92838e-16
20 -2.85067e-16 -3.70825e-16
20 -1.30896e-15 -5.77368e-16
20 -4.52908e-16 -1.06788e-15
20 -7.18386e-16 -1.36687e-15
20 -9.64949e-16 -1.222e-16
20 -9.46985e-16 -9.79113e-16
20 -2.22002e-15 6.90075e-17
20 -1.87427e-15 -5.97249e-16
20 -8.18947e-16 -6.70397e-16
20 -1.02099e-17 0
20 -1.57966e-15 -1.14703e-15
20 -1.11588e-15 -9.3436e-17
20 -2.35108e-16 -6.92885e-16
20 -4.36358e-16 -1.06825e-15
20 -1.16105e-15 -1.26513e-15
20 -7.70525e-16 -3.52728e-16
20 0 0
20 -1.88673e-15 -4.23186e-16
20 -7.10768e-16 -1.60718e-15
20 -1.56414e-15 -1.19224e-17
20 -8.34053e-16 -9.38377e-16
20 -1.11422e-15 -7.47624e-17
20 -1.27265e-15 -1.476e-15
20 -2.90879e-16 0
20 -1.78853e-15 -8.23905e-16
20 -8.47773e-16 -8.67732e-16
20 -1.66409e-15 -3.40597e-16
20 -1.51211e-15 -1.60823e-15
20 -3.46649e-16 -9.0507e-16
20 -1.60234e-15 9.83592e-16
20 -8.5962e-16 -1.0191e-15
20 -1.01774e-15 -1.27162e-15
20 -9.68135e-16 -8.36477e-16
20 -1.28806e-15 -1.54158e-15
20 -8.94267e-16 -4.11952e-16
20 -1.72631e-15 -5.82251e-16
20 -1.63321e-15 3.21498e-16
20 -8.18379e-16 -1.34335e-15
20 -1.17349e-15 -1.27562e-15
20 -7.19827e-16 0
20 -1.28524e-15 7.35575e-17
20 -1.093e-15 -2.2577e-17
20 -9.06414e-16 -1.19655e-15
20 -8.93257e-16 -1.08991e-15
20 -1.10022e-15 -4.69681e-16
20 -8.62396e-16 -1.26995e-15
20 -9.87364e-16 -7.56111e-16
20 -1.06273e-15 0
20 -9.46889e-16 -9.76328e-16
20 -1.03246e-15 4.41546e-16
20 -1.00991e-15 -1.57283e-16
20 -1.03246e-15 2.20773e-16
