# vtk DataFile Version 2.0
track0
ASCII
DATASET POLYDATA
POINTS 1720 float
-1.001 -0.05 0.0011
-1.0008 -0.05 0.0011
-1.0006 -0.05 0.0011
-1.0004 -0.05 0.0011
-1.0002 -0.05 0.0011
-1 -0.05 0.0011
-0.8 -0.05 0.0011
-0.6 -0.05 0.0011
-0.4 -0.05 0.0011
-0.2 -0.05 0.0011
0 -0.05 0.0011
0.2 -0.05 0.0011
0.4 -0.05 0.0011
0.6 -0.05 0.0011
0.8 -0.05 0.0011
1 -0.05 0.0011
1.2 -0.05 0.0011
1.4 -0.05 0.0011
1.6 -0.05 0.0011
1.8 -0.05 0.0011
2 -0.05 0.0011
2.2 -0.05 0.0011
2.4 -0.05 0.0011
2.6 -0.05 0.0011
2.8 -0.05 0.0011
3 -0.05 0.0011
3.2 -0.05 0.0011
3.4 -0.05 0.0011
3.6 -0.05 0.0011
3.8 -0.05 0.0011
4 -0.05 0.0011
4.2 -0.05 0.0011
4.4 -0.05 0.0011
4.6 -0.05 0.0011
4.8 -0.05 0.0011
5 -0.05 0.0011
5.2 -0.05 0.0011
5.4 -0.05 0.0011
5.6 -0.05 0.0011
5.8 -0.05 0.0011
6 -0.05 0.0011
6.2 -0.05 0.0011
6.4 -0.05 0.0011
6.6 -0.05 0.0011
6.8 -0.05 0.0011
7 -0.05 0.0011
7.2 -0.05 0.0011
7.4 -0.05 0.0011
7.6 -0.05 0.0011
7.8 -0.05 0.0011
8 -0.05 0.0011
8.2 -0.05 0.0011
8.4 -0.05 0.0011
8.6 -0.05 0.0011
8.8 -0.05 0.0011
9 -0.05 0.0011
9.2 -0.05 0.0011
9.4 -0.05 0.0011
9.6 -0.05 0.0011
9.8 -0.05 0.0011
10 -0.05 0.0011
10.2 -0.05 0.0011
10.4 -0.05 0.0011
10.6 -0.05 0.0011
10.8 -0.05 0.0011
11 -0.05 0.0011
11.2 -0.05 0.0011
11.4 -0.05 0.0011
11.6 -0.05 0.0011
11.8 -0.05 0.0011
12 -0.05 0.0011
12.2 -0.05 0.0011
12.4 -0.05 0.0011
12.6 -0.05 0.0011
12.8 -0.05 0.0011
13 -0.05 0.0011
13.2 -0.05 0.0011
13.4 -0.05 0.0011
13.6 -0.05 0.0011
13.8 -0.05 0.0011
14 -0.05 0.0011
14.2 -0.05 0.0011
14.4 -0.05 0.0011
14.6 -0.05 0.0011
14.8 -0.05 0.0011
15 -0.05 0.0011
-1.001 -0.05 0.0537316
-1.0008 -0.05 0.0537316
-1.0006 -0.05 0.0537316
-1.0004 -0.05 0.0537316
-1.0002 -0.05 0.0537316
-1 -0.05 0.0537316
-0.8 -0.05 0.0537316
-0.6 -0.05 0.0537316
-0.4 -0.05 0.0537316
-0.2 -0.05 0.0537316
0 -0.05 0.0537316
0.2 -0.05 0.0537316
0.4 -0.05 0.0537316
0.6 -0.05 0.0537316
0.8 -0.05 0.0537316
1 -0.05 0.0537316
1.2 -0.05 0.0537316
1.4 -0.05 0.0537316
1.6 -0.05 0.0537316
1.8 -0.05 0.0537316
2 -0.05 0.0537316
2.2 -0.05 0.0537316
2.4 -0.05 0.0537316
2.6 -0.05 0.0537316
2.8 -0.05 0.0537316
3 -0.05 0.0537316
3.2 -0.05 0.0537316
3.4 -0.05 0.0537316
3.6 -0.05 0.0537316
3.8 -0.05 0.0537316
4 -0.05 0.0537316
4.2 -0.05 0.0537316
4.4 -0.05 0.0537316
4.6 -0.05 0.0537316
4.8 -0.05 0.0537316
5 -0.05 0.0537316
5.2 -0.05 0.0537316
5.4 -0.05 0.0537316
5.6 -0.05 0.0537316
5.8 -0.05 0.0537316
6 -0.05 0.0537316
6.2 -0.05 0.0537316
6.4 -0.05 0.0537316
6.6 -0.05 0.0537316
6.8 -0.05 0.0537316
7 -0.05 0.0537316
7.2 -0.05 0.0537316
7.4 -0.05 0.0537316
7.6 -0.05 0.0537316
7.8 -0.05 0.0537316
8 -0.05 0.0537316
8.2 -0.05 0.0537316
8.4 -0.05 0.0537316
8.6 -0.05 0.0537316
8.8 -0.05 0.0537316
9 -0.05 0.0537316
9.2 -0.05 0.0537316
9.4 -0.05 0.0537316
9.6 -0.05 0.0537316
9.8 -0.05 0.0537316
10 -0.05 0.0537316
10.2 -0.05 0.0537316
10.4 -0.05 0.0537316
10.6 -0.05 0.0537316
10.8 -0.05 0.0537316
11 -0.05 0.0537316
11.2 -0.05 0.0537316
11.4 -0.05 0.0537316
11.6 -0.05 0.0537316
11.8 -0.05 0.0537316
12 -0.05 0.0537316
12.2 -0.05 0.0537316
12.4 -0.05 0.0537316
12.6 -0.05 0.0537316
12.8 -0.05 0.0537316
13 -0.05 0.0537316
13.2 -0.05 0.0537316
13.4 -0.05 0.0537316
13.6 -0.05 0.0537316
13.8 -0.05 0.0537316
14 -0.05 0.0537316
14.2 -0.05 0.0537316
14.4 -0.05 0.0537316
14.6 -0.05 0.0537316
14.8 -0.05 0.0537316
15 -0.05 0.0537316
-1.001 -0.05 0.106363
-1.0008 -0.05 0.106363
-1.0006 -0.05 0.106363
-1.0004 -0.05 0.106363
-1.0002 -0.05 0.106363
-1 -0.05 0.106363
-0.8 -0.05 0.106363
-0.6 -0.05 0.106363
-0.4 -0.05 0.106363
-0.2 -0.05 0.106363
0 -0.05 0.106363
0.2 -0.05 0.106363
0.4 -0.05 0.106363
0.6 -0.05 0.106363
0.8 -0.05 0.106363
1 -0.05 0.106363
1.2 -0.05 0.106363
1.4 -0.05 0.106363
1.6 -0.05 0.106363
1.8 -0.05 0.106363
2 -0.05 0.106363
2.2 -0.05 0.106363
2.4 -0.05 0.106363
2.6 -0.05 0.106363
2.8 -0.05 0.106363
3 -0.05 0.106363
3.2 -0.05 0.106363
3.4 -0.05 0.106363
3.6 -0.05 0.106363
3.8 -0.05 0.106363
4 -0.05 0.106363
4.2 -0.05 0.106363
4.4 -0.05 0.106363
4.6 -0.05 0.106363
4.8 -0.05 0.106363
5 -0.05 0.106363
5.2 -0.05 0.106363
5.4 -0.05 0.106363
5.6 -0.05 0.106363
5.8 -0.05 0.106363
6 -0.05 0.106363
6.2 -0.05 0.106363
6.4 -0.05 0.106363
6.6 -0.05 0.106363
6.8 -0.05 0.106363
7 -0.05 0.106363
7.2 -0.05 0.106363
7.4 -0.05 0.106363
7.6 -0.05 0.106363
7.8 -0.05 0.106363
8 -0.05 0.106363
8.2 -0.05 0.106363
8.4 -0.05 0.106363
8.6 -0.05 0.106363
8.8 -0.05 0.106363
9 -0.05 0.106363
9.2 -0.05 0.106363
9.4 -0.05 0.106363
9.6 -0.05 0.106363
9.8 -0.05 0.106363
10 -0.05 0.106363
10.2 -0.05 0.106363
10.4 -0.05 0.106363
10.6 -0.05 0.106363
10.8 -0.05 0.106363
11 -0.05 0.106363
11.2 -0.05 0.106363
11.4 -0.05 0.106363
11.6 -0.05 0.106363
11.8 -0.05 0.106363
12 -0.05 0.106363
12.2 -0.05 0.106363
12.4 -0.05 0.106363
12.6 -0.05 0.106363
12.8 -0.05 0.106363
13 -0.05 0.106363
13.2 -0.05 0.106363
13.4 -0.05 0.106363
13.6 -0.05 0.106363
13.8 -0.05 0.106363
14 -0.05 0.106363
14.2 -0.05 0.106363
14.4 -0.05 0.106363
14.6 -0.05 0.106363
14.8 -0.05 0.106363
15 -0.05 0.106363
-1.001 -0.05 0.158995
-1.0008 -0.05 0.158995
-1.0006 -0.05 0.158995
-1.0004 -0.05 0.158995
-1.0002 -0.05 0.158995
-1 -0.05 0.158995
-0.8 -0.05 0.158995
-0.6 -0.05 0.158995
-0.4 -0.05 0.158995
-0.2 -0.05 0.158995
0 -0.05 0.158995
0.2 -0.05 0.158995
0.4 -0.05 0.158995
0.6 -0.05 0.158995
0.8 -0.05 0.158995
1 -0.05 0.158995
1.2 -0.05 0.158995
1.4 -0.05 0.158995
1.6 -0.05 0.158995
1.8 -0.05 0.158995
2 -0.05 0.158995
2.2 -0.05 0.158995
2.4 -0.05 0.158995
2.6 -0.05 0.158995
2.8 -0.05 0.158995
3 -0.05 0.158995
3.2 -0.05 0.158995
3.4 -0.05 0.158995
3.6 -0.05 0.158995
3.8 -0.05 0.158995
4 -0.05 0.158995
4.2 -0.05 0.158995
4.4 -0.05 0.158995
4.6 -0.05 0.158995
4.8 -0.05 0.158995
5 -0.05 0.158995
5.2 -0.05 0.158995
5.4 -0.05 0.158995
5.6 -0.05 0.158995
5.8 -0.05 0.158995
6 -0.05 0.158995
6.2 -0.05 0.158995
6.4 -0.05 0.158995
6.6 -0.05 0.158995
6.8 -0.05 0.158995
7 -0.05 0.158995
7.2 -0.05 0.158995
7.4 -0.05 0.158995
7.6 -0.05 0.158995
7.8 -0.05 0.158995
8 -0.05 0.158995
8.2 -0.05 0.158995
8.4 -0.05 0.158995
8.6 -0.05 0.158995
8.8 -0.05 0.158995
9 -0.05 0.158995
9.2 -0.05 0.158995
9.4 -0.05 0.158995
9.6 -0.05 0.158995
9.8 -0.05 0.158995
10 -0.05 0.158995
10.2 -0.05 0.158995
10.4 -0.05 0.158995
10.6 -0.05 0.158995
10.8 -0.05 0.158995
11 -0.05 0.158995
11.2 -0.05 0.158995
11.4 -0.05 0.158995
11.6 -0.05 0.158995
11.8 -0.05 0.158995
12 -0.05 0.158995
12.2 -0.05 0.158995
12.4 -0.05 0.158995
12.6 -0.05 0.158995
12.8 -0.05 0.158995
13 -0.05 0.158995
13.2 -0.05 0.158995
13.4 -0.05 0.158995
13.6 -0.05 0.158995
13.8 -0.05 0.158995
14 -0.05 0.158995
14.2 -0.05 0.158995
14.4 -0.05 0.158995
14.6 -0.05 0.158995
14.8 -0.05 0.158995
15 -0.05 0.158995
-1.001 -0.05 0.211626
-1.0008 -0.05 0.211626
-1.0006 -0.05 0.211626
-1.0004 -0.05 0.211626
-1.0002 -0.05 0.211626
-1 -0.05 0.211626
-0.8 -0.05 0.211626
-0.6 -0.05 0.211626
-0.4 -0.05 0.211626
-0.2 -0.05 0.211626
0 -0.05 0.211626
0.2 -0.05 0.211626
0.4 -0.05 0.211626
0.6 -0.05 0.211626
0.8 -0.05 0.211626
1 -0.05 0.211626
1.2 -0.05 0.211626
1.4 -0.05 0.211626
1.6 -0.05 0.211626
1.8 -0.05 0.211626
2 -0.05 0.211626
2.2 -0.05 0.211626
2.4 -0.05 0.211626
2.6 -0.05 0.211626
2.8 -0.05 0.211626
3 -0.05 0.211626
3.2 -0.05 0.211626
3.4 -0.05 0.211626
3.6 -0.05 0.211626
3.8 -0.05 0.211626
4 -0.05 0.211626
4.2 -0.05 0.211626
4.4 -0.05 0.211626
4.6 -0.05 0.211626
4.8 -0.05 0.211626
5 -0.05 0.211626
5.2 -0.05 0.211626
5.4 -0.05 0.211626
5.6 -0.05 0.211626
5.8 -0.05 0.211626
6 -0.05 0.211626
6.2 -0.05 0.211626
6.4 -0.05 0.211626
6.6 -0.05 0.211626
6.8 -0.05 0.211626
7 -0.05 0.211626
7.2 -0.05 0.211626
7.4 -0.05 0.211626
7.6 -0.05 0.211626
7.8 -0.05 0.211626
8 -0.05 0.211626
8.2 -0.05 0.211626
8.4 -0.05 0.211626
8.6 -0.05 0.211626
8.8 -0.05 0.211626
9 -0.05 0.211626
9.2 -0.05 0.211626
9.4 -0.05 0.211626
9.6 -0.05 0.211626
9.8 -0.05 0.211626
10 -0.05 0.211626
10.2 -0.05 0.211626
10.4 -0.05 0.211626
10.6 -0.05 0.211626
10.8 -0.05 0.211626
11 -0.05 0.211626
11.2 -0.05 0.211626
11.4 -0.05 0.211626
11.6 -0.05 0.211626
11.8 -0.05 0.211626
12 -0.05 0.211626
12.2 -0.05 0.211626
12.4 -0.05 0.211626
12.6 -0.05 0.211626
12.8 -0.05 0.211626
13 -0.05 0.211626
13.2 -0.05 0.211626
13.4 -0.05 0.211626
13.6 -0.05 0.211626
13.8 -0.05 0.211626
14 -0.05 0.211626
14.2 -0.05 0.211626
14.4 -0.05 0.211626
14.6 -0.05 0.211626
14.8 -0.05 0.211626
15 -0.05 0.211626
-1.001 -0.05 0.264258
-1.0008 -0.05 0.264258
-1.0006 -0.05 0.264258
-1.0004 -0.05 0.264258
-1.0002 -0.05 0.264258
-1 -0.05 0.264258
-0.8 -0.05 0.264258
-0.6 -0.05 0.264258
-0.4 -0.05 0.264258
-0.2 -0.05 0.264258
0 -0.05 0.264258
0.2 -0.05 0.264258
0.4 -0.05 0.264258
0.6 -0.05 0.264258
0.8 -0.05 0.264258
1 -0.05 0.264258
1.2 -0.05 0.264258
1.4 -0.05 0.264258
1.6 -0.05 0.264258
1.8 -0.05 0.264258
2 -0.05 0.264258
2.2 -0.05 0.264258
2.4 -0.05 0.264258
2.6 -0.05 0.264258
2.8 -0.05 0.264258
3 -0.05 0.264258
3.2 -0.05 0.264258
3.4 -0.05 0.264258
3.6 -0.05 0.264258
3.8 -0.05 0.264258
4 -0.05 0.264258
4.2 -0.05 0.264258
4.4 -0.05 0.264258
4.6 -0.05 0.264258
4.8 -0.05 0.264258
5 -0.05 0.264258
5.2 -0.05 0.264258
5.4 -0.05 0.264258
5.6 -0.05 0.264258
5.8 -0.05 0.264258
6 -0.05 0.264258
6.2 -0.05 0.264258
6.4 -0.05 0.264258
6.6 -0.05 0.264258
6.8 -0.05 0.264258
7 -0.05 0.264258
7.2 -0.05 0.264258
7.4 -0.05 0.264258
7.6 -0.05 0.264258
7.8 -0.05 0.264258
8 -0.05 0.264258
8.2 -0.05 0.264258
8.4 -0.05 0.264258
8.6 -0.05 0.264258
8.8 -0.05 0.264258
9 -0.05 0.264258
9.2 -0.05 0.264258
9.4 -0.05 0.264258
9.6 -0.05 0.264258
9.8 -0.05 0.264258
10 -0.05 0.264258
10.2 -0.05 0.264258
10.4 -0.05 0.264258
10.6 -0.05 0.264258
10.8 -0.05 0.264258
11 -0.05 0.264258
11.2 -0.05 0.264258
11.4 -0.05 0.264258
11.6 -0.05 0.264258
11.8 -0.05 0.264258
12 -0.05 0.264258
12.2 -0.05 0.264258
12.4 -0.05 0.264258
12.6 -0.05 0.264258
12.8 -0.05 0.264258
13 -0.05 0.264258
13.2 -0.05 0.264258
13.4 -0.05 0.264258
13.6 -0.05 0.264258
13.8 -0.05 0.264258
14 -0.05 0.264258
14.2 -0.05 0.264258
14.4 -0.05 0.264258
14.6 -0.05 0.264258
14.8 -0.05 0.264258
15 -0.05 0.264258
-1.001 -0.05 0.316889
-1.0008 -0.05 0.316889
-1.0006 -0.05 0.316889
-1.0004 -0.05 0.316889
[...]
POINT_DATA 1720
 FIELD attributes 2
p 1 1720 float
-1.26977e-13 -1.2697e-13 -1.26963e-13 -1.26956e-13 -1.26949e-13 -1.26942e-13 -1.24405e-13 -1.21907e-13 -1.19409e-13 -1.1691e-13 -1.14282e-13 -1.20569e-13 -1.26884e-13 -1.33199e-13 -1.39514e-13 -1.45748e-13 -1.50269e-13 -1.54764e-13 -1.59259e-13 -1.63754e-13 -1.68454e-13 -1.6412e-13 -1.59732e-13 -1.55345e-13 -1.50957e-13 -1.46773e-13 -1.3964e-13 -1.32506e-13 -1.25371e-13 -1.18237e-13 -1.10951e-13 -1.0788e-13 -1.04829e-13 -1.01778e-13 -9.87263e-14 -9.57566e-14 -9.62309e-14 -9.67121e-14 -9.71933e-14 -9.76745e-14 -9.81882e-14 -9.55544e-14 -9.28894e-14 -9.02245e-14 -8.75595e-14 -8.47598e-14 -8.0436e-14 -7.61198e-14 -7.18036e-14 -6.74874e-14 -6.33342e-14 -6.40304e-14 -6.47426e-14 -6.54547e-14 -6.61669e-14 -6.69045e-14 -6.70113e-14 -6.70815e-14 -6.71517e-14 -6.72219e-14 -6.7077e-14 -6.21687e-14 -5.72398e-14 -5.23108e-14 -4.73819e-14 -4.24488e-14 -3.58478e-14 -2.92479e-14 -2.2648e-14 -1.60481e-14 -9.4711e-15 -5.89132e-15 -2.34758e-15 1.19616e-15 4.7399e-15 8.56493e-15 7.44344e-15 6.2902e-15 5.13695e-15 3.9837e-15 2.88524e-15 1.93898e-15 9.91756e-16 4.45303e-17 -9.02696e-16 -2.03172e-15
-1.27207e-13 -1.272e-13 -1.27193e-13 -1.27186e-13 -1.27179e-13 -1.27172e-13 -1.22878e-13 -1.2038e-13 -1.17882e-13 -1.15384e-13 -1.14502e-13 -1.1951e-13 -1.25825e-13 -1.3214e-13 -1.38455e-13 -1.45414e-13 -1.51068e-13 -1.55563e-13 -1.60058e-13 -1.64554e-13 -1.67881e-13 -1.65961e-13 -1.61573e-13 -1.57185e-13 -1.52797e-13 -1.4648e-13 -1.39417e-13 -1.32283e-13 -1.25148e-13 -1.18014e-13 -1.10601e-13 -1.06673e-13 -1.03621e-13 -1.0057e-13 -9.75186e-14 -9.54804e-14 -9.56629e-14 -9.61442e-14 -9.66254e-14 -9.71066e-14 -9.81238e-14 -9.68811e-14 -9.42161e-14 -9.15512e-14 -8.88862e-14 -8.48268e-14 -8.01864e-14 -7.58702e-14 -7.1554e-14 -6.72378e-14 -6.36727e-14 -6.36443e-14 -6.43565e-14 -6.50686e-14 -6.57808e-14 -6.702e-14 -6.87282e-14 -6.87984e-14 -6.88686e-14 -6.89388e-14 -6.68236e-14 -6.2835e-14 -5.79061e-14 -5.29771e-14 -4.80482e-14 -4.22708e-14 -3.56405e-14 -2.90406e-14 -2.24407e-14 -1.58408e-14 -9.53493e-15 -4.37855e-15 -8.34807e-16 2.70893e-15 6.25267e-15 8.14077e-15 8.44018e-15 7.28693e-15 6.13368e-15 4.98044e-15 2.58691e-15 1.71272e-15 7.65489e-16 -1.81737e-16 -1.12896e-15 -1.92247e-15
-1.27437e-13 -1.2743e-13 -1.27423e-13 -1.27416e-13 -1.27409e-13 -1.27402e-13 -1.23099e-13 -1.206e-13 -1.18102e-13 -1.15604e-13 -1.14722e-13 -1.19176e-13 -1.25491e-13 -1.31806e-13 -1.38121e-13 -1.45079e-13 -1.50495e-13 -1.5499e-13 -1.59485e-13 -1.6398e-13 -1.67308e-13 -1.65668e-13 -1.61281e-13 -1.56893e-13 -1.52505e-13 -1.46188e-13 -1.39067e-13 -1.31933e-13 -1.24798e-13 -1.17664e-13 -1.10252e-13 -1.06397e-13 -1.03345e-13 -1.00294e-13 -9.72425e-14 -9.52043e-14 -9.55985e-14 -9.60797e-14 -9.65609e-14 -9.70421e-14 -9.80594e-14 -9.69481e-14 -9.42831e-14 -9.16182e-14 -8.89532e-14 -8.48938e-14 -8.05249e-14 -7.62087e-14 -7.18925e-14 -6.75763e-14 -6.40112e-14 -6.37598e-14 -6.44719e-14 -6.51841e-14 -6.58962e-14 -6.71354e-14 -6.84748e-14 -6.8545e-14 -6.86152e-14 -6.86854e-14 -6.65702e-14 -6.26571e-14 -5.77281e-14 -5.27992e-14 -4.78703e-14 -4.20929e-14 -3.57043e-14 -2.91044e-14 -2.25045e-14 -1.59046e-14 -9.59877e-15 -4.8027e-15 -1.25897e-15 2.28477e-15 5.82851e-15 7.71661e-15 8.14185e-15 6.9886e-15 5.83535e-15 4.68211e-15 2.28857e-15 1.82196e-15 8.74734e-16 -7.24917e-17 -1.01972e-15 -1.81323e-15
-1.27667e-13 -1.2766e-13 -1.27653e-13 -1.27646e-13 -1.27639e-13 -1.27632e-13 -1.23319e-13 -1.20821e-13 -1.18323e-13 -1.15824e-13 -1.14943e-13 -1.18841e-13 -1.25156e-13 -1.31471e-13 -1.37786e-13 -1.44745e-13 -1.49922e-13 -1.54417e-13 -1.58912e-13 -1.63407e-13 -1.66734e-13 -1.65376e-13 -1.60988e-13 -1.56601e-13 -1.52213e-13 -1.45896e-13 -1.38717e-13 -1.31583e-13 -1.24449e-13 -1.17314e-13 -1.09902e-13 -1.0612e-13 -1.03069e-13 -1.00018e-13 -9.69664e-14 -9.49282e-14 -9.55341e-14 -9.60153e-14 -9.64965e-14 -9.69777e-14 -9.79949e-14 -9.70151e-14 -9.43502e-14 -9.16852e-14 -8.90203e-14 -8.49609e-14 -8.08634e-14 -7.65471e-14 -7.22309e-14 -6.79147e-14 -6.43497e-14 -6.38752e-14 -6.45873e-14 -6.52995e-14 -6.60116e-14 -6.72508e-14 -6.82214e-14 -6.82916e-14 -6.83617e-14 -6.84319e-14 -6.63167e-14 -6.24792e-14 -5.75502e-14 -5.26213e-14 -4.76924e-14 -4.1915e-14 -3.57682e-14 -2.91683e-14 -2.25684e-14 -1.59685e-14 -9.6626e-15 -5.22686e-15 -1.68312e-15 1.86062e-15 5.40436e-15 7.29245e-15 7.84351e-15 6.69027e-15 5.53702e-15 4.38377e-15 1.99024e-15 1.93121e-15 9.8398e-16 3.67535e-17 -9.10473e-16 -1.70398e-15
-1.27897e-13 -1.2789e-13 -1.27883e-13 -1.27876e-13 -1.27869e-13 -1.27862e-13 -1.23541e-13 -1.21041e-13 -1.18543e-13 -1.16045e-13 -1.15163e-13 -1.1863e-13 -1.24822e-13 -1.31137e-13 -1.37452e-13 -1.44411e-13 -1.49401e-13 -1.53843e-13 -1.58338e-13 -1.62833e-13 -1.66161e-13 -1.65022e-13 -1.60696e-13 -1.56308e-13 -1.51921e-13 -1.45604e-13 -1.3838e-13 -1.31233e-13 -1.24099e-13 -1.16965e-13 -1.09552e-13 -1.05828e-13 -1.02793e-13 -9.97416e-14 -9.66902e-14 -9.46521e-14 -9.54229e-14 -9.59509e-14 -9.64321e-14 -9.69133e-14 -9.79305e-14 -9.70531e-14 -9.44172e-14 -9.17523e-14 -8.90873e-14 -8.50279e-14 -8.11419e-14 -7.68856e-14 -7.25694e-14 -6.82532e-14 -6.46882e-14 -6.40399e-14 -6.47028e-14 -6.54149e-14 -6.6127e-14 -6.73662e-14 -6.80494e-14 -6.80381e-14 -6.81083e-14 -6.81785e-14 -6.60633e-14 -6.22846e-14 -5.73723e-14 -5.24434e-14 -4.75145e-14 -4.17371e-14 -3.57786e-14 -2.92321e-14 -2.26322e-14 -1.60323e-14 -9.72643e-15 -5.57143e-15 -2.10728e-15 1.43646e-15 4.9802e-15 6.8683e-15 7.51739e-15 6.39194e-15 5.23869e-15 4.08544e-15 1.69191e-15 1.95042e-15 1.09322e-15 1.45999e-16 -8.01227e-16 -1.59474e-15
-1.28127e-13 -1.2812e-13 -1.28113e-13 -1.28106e-13 -1.28099e-13 -1.28092e-13 -1.23771e-13 -1.21261e-13 -1.18763e-13 -1.16265e-13 -1.15383e-13 -1.1885e-13 -1.24488e-13 -1.30803e-13 -1.37118e-13 -1.44076e-13 -1.49067e-13 -1.5327e-13 -1.57765e-13 -1.6226e-13 -1.65588e-13 -1.64449e-13 -1.60404e-13 -1.56016e-13 -1.51628e-13 -1.45312e-13 -1.38088e-13 -1.30884e-13 -1.23749e-13 -1.16615e-13 -1.09203e-13 -1.05478e-13 -1.02517e-13 -9.94655e-14 -9.64141e-14 -9.43759e-14 -9.51468e-14 -9.58864e-14 -9.63676e-14 -9.68488e-14 -9.78661e-14 -9.69887e-14 -9.44843e-14 -9.18193e-14 -8.91544e-14 -8.50949e-14 -8.12089e-14 -7.72241e-14 -7.29079e-14 -6.85917e-14 -6.50266e-14 -6.43784e-14 -6.48182e-14 -6.55303e-14 -6.62425e-14 -6.74816e-14 -6.81648e-14 -6.77847e-14 -6.78549e-14 -6.7925e-14 -6.58099e-14 -6.20311e-14 -5.71944e-14 -5.22655e-14 -4.73365e-14 -4.15592e-14 -3.56007e-14 -2.92959e-14 -2.2696e-14 -1.60961e-14 -9.79027e-15 -5.63526e-15 -2.53144e-15 1.0123e-15 4.55604e-15 6.44414e-15 7.09323e-15 6.0936e-15 4.94036e-15 3.78711e-15 1.39358e-15 1.65209e-15 1.20247e-15 2.55244e-16 -6.91982e-16 -1.48549e-15
-1.28356e-13 -1.2835e-13 -1.28343e-13 -1.28336e-13 -1.28329e-13 -1.28322e-13 -1.24001e-13 -1.21481e-13 -1.18983e-13 -1.16485e-13 -1.15603e-13 -1.1907e-13 -1.24153e-13 -1.30468e-13 -1.36783e-13 -1.43742e-13 -1.48732e-13 -1.52697e-13 -1.57192e-13 -1.61687e-13 -1.65014e-13 -1.63875e-13 -1.60112e-13 -1.55724e-13 -1.51336e-13 -1.4502e-13 -1.37796e-13 -1.30534e-13 -1.234e-13 -1.16265e-13 -1.08853e-13 -1.05129e-13 -1.02241e-13 -9.91894e-14 -9.6138e-14 -9.40998e-14 -9.48706e-14 -9.5822e-14 -9.63032e-14 -9.67844e-14 -9.78016e-14 -9.69243e-14 -9.45513e-14 -9.18863e-14 -8.92214e-14 -8.5162e-14 -8.12759e-14 -7.75626e-14 -7.32464e-14 -6.89302e-14 -6.53651e-14 -6.47168e-14 -6.49336e-14 -6.56457e-14 -6.63579e-14 -6.75971e-14 -6.82803e-14 -6.75312e-14 -6.76014e-14 -6.76716e-14 -6.55564e-14 -6.17777e-14 -5.70165e-14 -5.20875e-14 -4.71586e-14 -4.13813e-14 -3.54228e-14 -2.93598e-14 -2.27599e-14 -1.616e-14 -9.8541e-15 -5.69909e-15 -2.9556e-15 5.88142e-16 4.13188e-15 6.01998e-15 6.66907e-15 5.79527e-15 4.64202e-15 3.48878e-15 1.09525e-15 1.35375e-15 1.31172e-15 3.64489e-16 -5.82737e-16 -1.37624e-15
-1.28586e-13 -1.2858e-13 -1.28573e-13 -1.28566e-13 -1.28559e-13 -1.28552e-13 -1.24231e-13 -1.21701e-13 -1.19203e-13 -1.16705e-13 -1.15823e-13 -1.1929e-13 -1.23819e-13 -1.30134e-13 -1.36449e-13 -1.43408e-13 -1.48398e-13 -1.52123e-13 -1.56618e-13 -1.61113e-13 -1.64441e-13 -1.63302e-13 -1.5982e-13 -1.55432e-13 -1.51044e-13 -1.44727e-13 -1.37504e-13 -1.30184e-13 -1.2305e-13 -1.15915e-13 -1.08503e-13 -1.04779e-13 -1.01965e-13 -9.89132e-14 -9.58619e-14 -9.38237e-14 -9.45945e-14 -9.57576e-14 -9.62388e-14 -9.672e-14 -9.77372e-14 -9.68598e-14 -9.46183e-14 -9.19534e-14 -8.92884e-14 -8.5229e-14 -8.1343e-14 -7.79011e-14 -7.35849e-14 -6.92687e-14 -6.57036e-14 -6.50553e-14 -6.5049e-14 -6.57612e-14 -6.64733e-14 -6.77125e-14 -6.83957e-14 -6.72778e-14 -6.7348e-14 -6.74182e-14 -6.5303e-14 -6.15242e-14 -5.68386e-14 -5.19096e-14 -4.69807e-14 -4.12033e-14 -3.52449e-14 -2.94236e-14 -2.28237e-14 -1.62238e-14 -9.91793e-15 -5.76293e-15 -3.37976e-15 1.63984e-16 3.70772e-15 5.59582e-15 6.24491e-15 5.49694e-15 4.34369e-15 3.19045e-15 7.96914e-16 1.05542e-15 1.42096e-15 4.73735e-16 -4.73492e-16 -1.267e-15
-1.28816e-13 -1.28809e-13 -1.28803e-13 -1.28796e-13 -1.28789e-13 -1.28782e-13 -1.24461e-13 -1.21926e-13 -1.19424e-13 -1.16925e-13 -1.16044e-13 -1.1951e-13 -1.23718e-13 -1.298e-13 -1.36115e-13 -1.43073e-13 -1.48064e-13 -1.51651e-13 -1.56045e-13 -1.6054e-13 -1.63867e-13 -1.62729e-13 -1.59409e-13 -1.5514e-13 -1.50752e-13 -1.44435e-13 -1.37212e-13 -1.29859e-13 -1.227e-13 -1.15566e-13 -1.08153e-13 -1.04429e-13 -1.01658e-13 -9.86371e-14 -9.55858e-14 -9.35476e-14 -9.43184e-14 -9.5604e-14 -9.61743e-14 -9.66555e-14 -9.76728e-14 -9.67954e-14 -9.463e-14 -9.20204e-14 -8.93555e-14 -8.52961e-14 -8.141e-14 -7.81253e-14 -7.39233e-14 -6.96071e-14 -6.60421e-14 -6.53938e-14 -6.52583e-14 -6.58766e-14 -6.65887e-14 -6.78279e-14 -6.85111e-14 -6.71796e-14 -6.70946e-14 -6.71647e-14 -6.50495e-14 -6.12708e-14 -5.66289e-14 -5.17317e-14 -4.68028e-14 -4.10254e-14 -3.50669e-14 -2.93857e-14 -2.28875e-14 -1.62876e-14 -9.98177e-15 -5.82676e-15 -3.65225e-15 -2.60175e-16 3.28357e-15 5.17166e-15 5.82075e-15 5.14565e-15 4.04536e-15 2.89211e-15 4.98582e-16 7.5709e-16 1.35866e-15 5.8298e-16 -3.64246e-16 -1.15775e-15
-1.29046e-13 -1.29039e-13 -1.29033e-13 -1.29026e-13 -1.29019e-13 -1.29012e-13 -1.24691e-13 -1.22156e-13 -1.19644e-13 -1.17146e-13 -1.16264e-13 -1.1973e-13 -1.23938e-13 -1.29465e-13 -1.3578e-13 -1.42739e-13 -1.47729e-13 -1.51316e-13 -1.55472e-13 -1.59967e-13 -1.63294e-13 -1.62155e-13 -1.58836e-13 -1.54848e-13 -1.5046e-13 -1.44143e-13 -1.3692e-13 -1.29566e-13 -1.2235e-13 -1.15216e-13 -1.07804e-13 -1.04079e-13 -1.01308e-13 -9.8361e-14 -9.53096e-14 -9.32714e-14 -9.40423e-14 -9.53279e-14 -9.61099e-14 -9.65911e-14 -9.76083e-14 -9.6731e-14 -9.45656e-14 -9.20874e-14 -8.94225e-14 -8.53631e-14 -8.14771e-14 -7.81923e-14 -7.42618e-14 -6.99456e-14 -6.63806e-14 -6.57323e-14 -6.55968e-14 -6.5992e-14 -6.67041e-14 -6.79433e-14 -6.86265e-14 -6.7295e-14 -6.68411e-14 -6.69113e-14 -6.47961e-14 -6.10174e-14 -5.63754e-14 -5.15538e-14 -4.66249e-14 -4.08475e-14 -3.4889e-14 -2.92078e-14 -2.29514e-14 -1.63515e-14 -1.00456e-14 -5.89059e-15 -3.71609e-15 -6.84333e-16 2.85941e-15 4.74751e-15 5.3966e-15 4.72149e-15 3.74703e-15 2.59378e-15 2.0025e-16 4.58758e-16 1.06032e-15 6.92225e-16 -2.55001e-16 -1.04851e-15
-1.29276e-13 -1.29269e-13 -1.29262e-13 -1.29256e-13 -1.29249e-13 -1.29242e-13 -1.24921e-13 -1.22386e-13 -1.19864e-13 -1.17366e-13 -1.16484e-13 -1.19951e-13 -1.24158e-13 -1.29131e-13 -1.35446e-13 -1.42405e-13 -1.47395e-13 -1.50982e-13 -1.54898e-13 -1.59393e-13 -1.62721e-13 -1.61582e-13 -1.58263e-13 -1.54555e-13 -1.50168e-13 -1.43851e-13 -1.36627e-13 -1.29274e-13 -1.22001e-13 -1.14866e-13 -1.07454e-13 -1.0373e-13 -1.00958e-13 -9.80849e-14 -9.50335e-14 -9.29953e-14 -9.37661e-14 -9.50518e-14 -9.60455e-14 -9.65267e-14 -9.75439e-14 -9.66665e-14 -9.45012e-14 -9.21545e-14 -8.94895e-14 -8.54301e-14 -8.15441e-14 -7.82594e-14 -7.46003e-14 -7.02841e-14 -6.6719e-14 -6.60708e-14 -6.59353e-14 -6.61074e-14 -6.68196e-14 -6.80587e-14 -6.87419e-14 -6.74105e-14 -6.65877e-14 -6.66579e-14 -6.45427e-14 -6.07639e-14 -5.6122e-14 -5.13759e-14 -4.6447e-14 -4.06696e-14 -3.47111e-14 -2.90299e-14 -2.30152e-14 -1.64153e-14 -1.01094e-14 -5.95443e-15 -3.77992e-15 -1.10849e-15 2.43525e-15 4.32335e-15 4.97244e-15 4.29733e-15 3.4487e-15 2.29545e-15 -9.80816e-17 1.60426e-16 7.61993e-16 8.0147e-16 -1.45756e-16 -9.39264e-16
-1.29506e-13 -1.29499e-13 -1.29492e-13 -1.29486e-13 -1.29479e-13 -1.29472e-13 -1.25151e-13 -1.22616e-13 -1.20084e-13 -1.17586e-13 -1.16704e-13 -1.20171e-13 -1.24379e-13 -1.28797e-13 -1.35112e-13 -1.4207e-13 -1.47061e-13 -1.50647e-13 -1.54325e-13 -1.5882e-13 -1.62147e-13 -1.61009e-13 -1.57689e-13 -1.54263e-13 -1.49875e-13 -1.43559e-13 -1.36335e-13 -1.28982e-13 -1.21651e-13 -1.14517e-13 -1.07104e-13 -1.0338e-13 -1.00608e-13 -9.78087e-14 -9.47574e-14 -9.27192e-14 -9.349e-14 -9.47757e-14 -9.5981e-14 -9.64622e-14 -9.74795e-14 -9.66021e-14 -9.44367e-14 -9.22215e-14 -8.95566e-14 -8.54972e-14 -8.16111e-14 -7.83264e-14 -7.49388e-14 -7.06226e-14 -6.70575e-14 -6.64092e-14 -6.62738e-14 -6.62228e-14 -6.6935e-14 -6.81742e-14 -6.88574e-14 -6.75259e-14 -6.63342e-14 -6.64044e-14 -6.42892e-14 -6.05105e-14 -5.58685e-14 -5.1198e-14 -4.6269e-14 -4.04917e-14 -3.45332e-14 -2.88519e-14 -2.3079e-14 -1.64791e-14 -1.01733e-14 -6.01826e-15 -3.84375e-15 -1.53265e-15 2.01109e-15 3.89919e-15 4.54828e-15 3.87317e-15 3.15037e-15 1.99712e-15 -3.96414e-16 -1.37906e-16 4.63661e-16 9.10716e-16 -3.65106e-17 -8.30019e-16
-1.29736e-13 -1.29729e-13 -1.29722e-13 -1.29715e-13 -1.29709e-13 -1.29702e-13 -1.25381e-13 -1.22845e-13 -1.2031e-13 -1.17806e-13 -1.16924e-13 -1.20391e-13 -1.24599e-13 -1.28807e-13 -1.34777e-13 -1.41736e-13 -1.46726e-13 -1.50313e-13 -1.539e-13 -1.58247e-13 -1.61574e-13 -1.60435e-13 -1.57116e-13 -1.53797e-13 -1.49583e-13 -1.43267e-13 -1.36043e-13 -1.2869e-13 -1.21337e-13 -1.14167e-13 -1.06754e-13 -1.0303e-13 -1.00259e-13 -9.74869e-14 -9.44813e-14 -9.24431e-14 -9.32139e-14 -9.44995e-14 -9.57852e-14 -9.63978e-14 -9.7415e-14 -9.65377e-14 -9.43723e-14 -9.22069e-14 -8.96236e-14 -8.55642e-14 -8.16782e-14 -7.83934e-14 -7.51087e-14 -7.09611e-14 -6.7396e-14 -6.67477e-14 -6.66122e-14 -6.64768e-14 -6.70504e-14 -6.82896e-14 -6.89728e-14 -6.76413e-14 -6.63098e-14 -6.6151e-14 -6.40358e-14 -6.02571e-14 -5.56151e-14 -5.09732e-14 -4.60911e-14 -4.03138e-14 -3.43553e-14 -2.8674e-14 -2.29928e-14 -1.6543e-14 -1.02371e-14 -6.08209e-15 -3.90759e-15 -1.73308e-15 1.58693e-15 3.47503e-15 4.12412e-15 3.44901e-15 2.77391e-15 1.69879e-15 -6.94745e-16 -4.36238e-16 1.65329e-16 7.66896e-16 7.27346e-17 -7.20773e-16
-1.29966e-13 -1.29959e-13 -1.29952e-13 -1.29945e-13 -1.29938e-13 -1.29932e-13 -1.25611e-13 -1.23075e-13 -1.2054e-13 -1.18026e-13 -1.17145e-13 -1.20611e-13 -1.24819e-13 -1.29027e-13 -1.34443e-13 -1.41401e-13 -1.46392e-13 -1.49979e-13 -1.53566e-13 -1.57673e-13 -1.61001e-13 -1.59862e-13 -1.56542e-13 -1.53223e-13 -1.49291e-13 -1.42974e-13 -1.35751e-13 -1.28398e-13 -1.21045e-13 -1.13817e-13 -1.06405e-13 -1.02681e-13 -9.99089e-14 -9.71372e-14 -9.42051e-14 -9.21669e-14 -9.29378e-14 -9.42234e-14 -9.5509e-14 -9.63334e-14 -9.73506e-14 -9.64732e-14 -9.43079e-14 -9.21425e-14 -8.96906e-14 -8.56312e-14 -8.17452e-14 -7.84605e-14 -7.51758e-14 -7.12995e-14 -6.77345e-14 -6.70862e-14 -6.69507e-14 -6.68152e-14 -6.71658e-14 -6.8405e-14 -6.90882e-14 -6.77567e-14 -6.64252e-14 -6.58976e-14 -6.37824e-14 -6.00036e-14 -5.53617e-14 -5.07197e-14 -4.59132e-14 -4.01358e-14 -3.41774e-14 -2.84961e-14 -2.28148e-14 -1.66068e-14 -1.03009e-14 -6.14593e-15 -3.97142e-15 -1.79692e-15 1.16277e-15 3.05087e-15 3.69996e-15 3.02486e-15 2.34975e-15 1.40045e-15 -9.93077e-16 -7.3457e-16 -1.33003e-16 4.68564e-16 1.8198e-16 -6.11528e-16
-1.30196e-13 -1.30189e-13 -1.30182e-13 -1.30175e-13 -1.30168e-13 -1.30162e-13 -1.25841e-13 -1.23305e-13 -1.2077e-13 -1.18247e-13 -1.17365e-13 -1.20831e-13 -1.25039e-13 -1.29247e-13 -1.34109e-13 -1.41067e-13 -1.46058e-13 -1.49644e-13 -1.53231e-13 -1.571e-13 -1.60427e-13 -1.59288e-13 -1.55969e-13 -1.5265e-13 -1.48999e-13 -1.42682e-13 -1.35459e-13 -1.28106e-13 -1.20753e-13 -1.13467e-13 -1.06055e-13 -1.02331e-13 -9.95592e-14 -9.67875e-14 -9.3929e-14 -9.18908e-14 -9.26616e-14 -9.39473e-14 -9.52329e-14 -9.6269e-14 -9.72862e-14 -9.64088e-14 -9.42434e-14 -9.20781e-14 -8.97577e-14 -8.56983e-14 -8.18122e-14 -7.85275e-14 -7.52428e-14 -7.1638e-14 -6.8073e-14 -6.74247e-14 -6.72892e-14 -6.71537e-14 -6.72812e-14 -6.85204e-14 -6.92036e-14 -6.78721e-14 -6.65407e-14 -6.56441e-14 -6.35289e-14 -5.97502e-14 -5.51082e-14 -5.04663e-14 -4.57353e-14 -3.99579e-14 -3.39994e-14 -2.83182e-14 -2.26369e-14 -1.66706e-14 -1.03648e-14 -6.20976e-15 -4.03525e-15 -1.86075e-15 7.38616e-16 2.62671e-15 3.27581e-15 2.6007e-15 1.92559e-15 1.10212e-15 -1.29141e-15 -1.0329e-15 -4.31335e-16 1.70232e-16 2.91225e-16 -5.02283e-16
-1.30426e-13 -1.30419e-13 -1.30412e-13 -1.30405e-13 -1.30398e-13 -1.30391e-13 -1.2607e-13 -1.23535e-13 -1.21e-13 -1.18467e-13 -1.17585e-13 -1.21052e-13 -1.25259e-13 -1.29467e-13 -1.33774e-13 -1.40733e-13 -1.45723e-13 -1.4931e-13 -1.52897e-13 -1.56526e-13 -1.59854e-13 -1.58715e-13 -1.55396e-13 -1.52076e-13 -1.48707e-13 -1.4239e-13 -1.35167e-13 -1.27814e-13 -1.2046e-13 -1.13118e-13 -1.05705e-13 -1.01981e-13 -9.92094e-14 -9.64377e-14 -9.36529e-14 -9.16147e-14 -9.23855e-14 -9.36712e-14 -9.49568e-14 -9.62045e-14 -9.72217e-14 -9.63444e-14 -9.4179e-14 -9.20136e-14 -8.98247e-14 -8.57653e-14 -8.18793e-14 -7.85946e-14 -7.53098e-14 -7.19765e-14 -6.84114e-14 -6.77632e-14 -6.76277e-14 -6.74922e-14 -6.73967e-14 -6.86359e-14 -6.9319e-14 -6.79876e-14 -6.66561e-14 -6.53907e-14 -6.32755e-14 -5.94968e-14 -5.48548e-14 -5.02128e-14 -4.55574e-14 -3.978e-14 -3.38215e-14 -2.81403e-14 -2.2459e-14 -1.67345e-14 -1.04286e-14 -6.27359e-15 -4.09909e-15 -1.92458e-15 3.14458e-16 2.20256e-15 2.85165e-15 2.17654e-15 1.50143e-15 8.0379e-16 -1.58974e-15 -1.33123e-15 -7.29667e-16 -1.281e-16 4.0047e-16 -3.93038e-16
-1.30656e-13 -1.30649e-13 -1.30642e-13 -1.30635e-13 -1.30628e-13 -1.30621e-13 -1.263e-13 -1.23765e-13 -1.2123e-13 -1.18695e-13 -1.17805e-13 -1.21272e-13 -1.2548e-13 -1.29687e-13 -1.33895e-13 -1.40398e-13 -1.45389e-13 -1.48976e-13 -1.52563e-13 -1.56149e-13 -1.59281e-13 -1.58142e-13 -1.54822e-13 -1.51503e-13 -1.48184e-13 -1.42098e-13 -1.34874e-13 -1.27521e-13 -1.20168e-13 -1.12815e-13 -1.05356e-13 -1.01631e-13 -9.88597e-14 -9.6088e-14 -9.33163e-14 -9.13386e-14 -9.21094e-14 -9.3395e-14 -9.46807e-14 -9.59663e-14 -9.71573e-14 -9.62799e-14 -9.41146e-14 -9.19492e-14 -8.97838e-14 -8.58323e-14 -8.19463e-14 -7.86616e-14 -7.53769e-14 -7.20921e-14 -6.87499e-14 -6.81016e-14 -6.79662e-14 -6.78307e-14 -6.76952e-14 -6.87513e-14 -6.94345e-14 -6.8103e-14 -6.67715e-14 -6.544e-14 -6.30221e-14 -5.92433e-14 -5.46014e-14 -4.99594e-14 -4.53175e-14 -3.96021e-14 -3.36436e-14 -2.79624e-14 -2.22811e-14 -1.65998e-14 -1.04924e-14 -6.33743e-15 -4.16292e-15 -1.98842e-15 1.8609e-16 1.7784e-15 2.42749e-15 1.75238e-15 1.07727e-15 4.02168e-16 -1.88807e-15 -1.62957e-15 -1.028e-15 -4.26432e-16 1.75136e-16 -2.83792e-16
-1.30886e-13 -1.30879e-13 -1.30872e-13 -1.30865e-13 -1.30858e-13 -1.30851e-13 -1.2653e-13 -1.23995e-13 -1.2146e-13 -1.18925e-13 -1.18025e-13 -1.21492e-13 -1.257e-13 -1.29908e-13 -1.34115e-13 -1.40064e-13 -1.45055e-13 -1.48641e-13 -1.52228e-13 -1.55815e-13 -1.58707e-13 -1.57568e-13 -1.54249e-13 -1.5093e-13 -1.4761e-13 -1.41806e-13 -1.34582e-13 -1.27229e-13 -1.19876e-13 -1.12523e-13 -1.05006e-13 -1.01282e-13 -9.851e-14 -9.57383e-14 -9.29666e-14 -9.10624e-14 -9.18333e-14 -9.31189e-14 -9.44045e-14 -9.56902e-14 -9.70929e-14 -9.62155e-14 -9.40501e-14 -9.18848e-14 -8.97194e-14 -8.58994e-14 -8.20133e-14 -7.87286e-14 -7.54439e-14 -7.21592e-14 -6.90884e-14 -6.84401e-14 -6.83046e-14 -6.81692e-14 -6.80337e-14 -6.88667e-14 -6.95499e-14 -6.82184e-14 -6.68869e-14 -6.55555e-14 -6.27686e-14 -5.89899e-14 -5.43479e-14 -4.9706e-14 -4.5064e-14 -3.94242e-14 -3.34657e-14 -2.77844e-14 -2.21032e-14 -1.64219e-14 -1.05563e-14 -6.40126e-15 -4.22675e-15 -2.05225e-15 1.22257e-16 1.35424e-15 2.00333e-15 1.32822e-15 6.53117e-16 -2.19906e-17 -2.18641e-15 -1.9279e-15 -1.32633e-15 -7.24764e-16 -1.23196e-16 -1.74547e-16