# vtk DataFile Version 2.0
track0
ASCII
DATASET POLYDATA
POINTS 1720 float
-1.001 -0.05 0.0011
-1.0008 -0.05 0.0011
-1.0006 -0.05 0.0011
-1.0004 -0.05 0.0011
-1.0002 -0.05 0.0011
-1 -0.05 0.0011
-0.8 -0.05 0.0011
-0.6 -0.05 0.0011
-0.4 -0.05 0.0011
-0.2 -0.05 0.0011
0 -0.05 0.0011
0.2 -0.05 0.0011
0.4 -0.05 0.0011
0.6 -0.05 0.0011
0.8 -0.05 0.0011
1 -0.05 0.0011
1.2 -0.05 0.0011
1.4 -0.05 0.0011
1.6 -0.05 0.0011
1.8 -0.05 0.0011
2 -0.05 0.0011
2.2 -0.05 0.0011
2.4 -0.05 0.0011
2.6 -0.05 0.0011
2.8 -0.05 0.0011
3 -0.05 0.0011
3.2 -0.05 0.0011
3.4 -0.05 0.0011
3.6 -0.05 0.0011
3.8 -0.05 0.0011
4 -0.05 0.0011
4.2 -0.05 0.0011
4.4 -0.05 0.0011
4.6 -0.05 0.0011
4.8 -0.05 0.0011
5 -0.05 0.0011
5.2 -0.05 0.0011
5.4 -0.05 0.0011
5.6 -0.05 0.0011
5.8 -0.05 0.0011
6 -0.05 0.0011
6.2 -0.05 0.0011
6.4 -0.05 0.0011
6.6 -0.05 0.0011
6.8 -0.05 0.0011
7 -0.05 0.0011
7.2 -0.05 0.0011
7.4 -0.05 0.0011
7.6 -0.05 0.0011
7.8 -0.05 0.0011
8 -0.05 0.0011
8.2 -0.05 0.0011
8.4 -0.05 0.0011
8.6 -0.05 0.0011
8.8 -0.05 0.0011
9 -0.05 0.0011
9.2 -0.05 0.0011
9.4 -0.05 0.0011
9.6 -0.05 0.0011
9.8 -0.05 0.0011
10 -0.05 0.0011
10.2 -0.05 0.0011
10.4 -0.05 0.0011
10.6 -0.05 0.0011
10.8 -0.05 0.0011
11 -0.05 0.0011
11.2 -0.05 0.0011
11.4 -0.05 0.0011
11.6 -0.05 0.0011
11.8 -0.05 0.0011
12 -0.05 0.0011
12.2 -0.05 0.0011
12.4 -0.05 0.0011
12.6 -0.05 0.0011
12.8 -0.05 0.0011
13 -0.05 0.0011
13.2 -0.05 0.0011
13.4 -0.05 0.0011
13.6 -0.05 0.0011
13.8 -0.05 0.0011
14 -0.05 0.0011
14.2 -0.05 0.0011
14.4 -0.05 0.0011
14.6 -0.05 0.0011
14.8 -0.05 0.0011
15 -0.05 0.0011
-1.001 -0.05 0.0537316
-1.0008 -0.05 0.0537316
-1.0006 -0.05 0.0537316
-1.0004 -0.05 0.0537316
-1.0002 -0.05 0.0537316
-1 -0.05 0.0537316
-0.8 -0.05 0.0537316
-0.6 -0.05 0.0537316
-0.4 -0.05 0.0537316
-0.2 -0.05 0.0537316
0 -0.05 0.0537316
0.2 -0.05 0.0537316
0.4 -0.05 0.0537316
0.6 -0.05 0.0537316
0.8 -0.05 0.0537316
1 -0.05 0.0537316
1.2 -0.05 0.0537316
1.4 -0.05 0.0537316
1.6 -0.05 0.0537316
1.8 -0.05 0.0537316
2 -0.05 0.0537316
2.2 -0.05 0.0537316
2.4 -0.05 0.0537316
2.6 -0.05 0.0537316
2.8 -0.05 0.0537316
3 -0.05 0.0537316
3.2 -0.05 0.0537316
3.4 -0.05 0.0537316
3.6 -0.05 0.0537316
3.8 -0.05 0.0537316
4 -0.05 0.0537316
4.2 -0.05 0.0537316
4.4 -0.05 0.0537316
4.6 -0.05 0.0537316
4.8 -0.05 0.0537316
5 -0.05 0.0537316
5.2 -0.05 0.0537316
5.4 -0.05 0.0537316
5.6 -0.05 0.0537316
5.8 -0.05 0.0537316
6 -0.05 0.0537316
6.2 -0.05 0.0537316
6.4 -0.05 0.0537316
6.6 -0.05 0.0537316
6.8 -0.05 0.0537316
7 -0.05 0.0537316
7.2 -0.05 0.0537316
7.4 -0.05 0.0537316
7.6 -0.05 0.0537316
7.8 -0.05 0.0537316
8 -0.05 0.0537316
8.2 -0.05 0.0537316
8.4 -0.05 0.0537316
8.6 -0.05 0.0537316
8.8 -0.05 0.0537316
9 -0.05 0.0537316
9.2 -0.05 0.0537316
9.4 -0.05 0.0537316
9.6 -0.05 0.0537316
9.8 -0.05 0.0537316
10 -0.05 0.0537316
10.2 -0.05 0.0537316
10.4 -0.05 0.0537316
10.6 -0.05 0.0537316
10.8 -0.05 0.0537316
11 -0.05 0.0537316
11.2 -0.05 0.0537316
11.4 -0.05 0.0537316
11.6 -0.05 0.0537316
11.8 -0.05 0.0537316
12 -0.05 0.0537316
12.2 -0.05 0.0537316
12.4 -0.05 0.0537316
12.6 -0.05 0.0537316
12.8 -0.05 0.0537316
13 -0.05 0.0537316
13.2 -0.05 0.0537316
13.4 -0.05 0.0537316
13.6 -0.05 0.0537316
13.8 -0.05 0.0537316
14 -0.05 0.0537316
14.2 -0.05 0.0537316
14.4 -0.05 0.0537316
14.6 -0.05 0.0537316
14.8 -0.05 0.0537316
15 -0.05 0.0537316
-1.001 -0.05 0.106363
-1.0008 -0.05 0.106363
-1.0006 -0.05 0.106363
-1.0004 -0.05 0.106363
-1.0002 -0.05 0.106363
-1 -0.05 0.106363
-0.8 -0.05 0.106363
-0.6 -0.05 0.106363
-0.4 -0.05 0.106363
-0.2 -0.05 0.106363
0 -0.05 0.106363
0.2 -0.05 0.106363
0.4 -0.05 0.106363
0.6 -0.05 0.106363
0.8 -0.05 0.106363
1 -0.05 0.106363
1.2 -0.05 0.106363
1.4 -0.05 0.106363
1.6 -0.05 0.106363
1.8 -0.05 0.106363
2 -0.05 0.106363
2.2 -0.05 0.106363
2.4 -0.05 0.106363
2.6 -0.05 0.106363
2.8 -0.05 0.106363
3 -0.05 0.106363
3.2 -0.05 0.106363
3.4 -0.05 0.106363
3.6 -0.05 0.106363
3.8 -0.05 0.106363
4 -0.05 0.106363
4.2 -0.05 0.106363
4.4 -0.05 0.106363
4.6 -0.05 0.106363
4.8 -0.05 0.106363
5 -0.05 0.106363
5.2 -0.05 0.106363
5.4 -0.05 0.106363
5.6 -0.05 0.106363
5.8 -0.05 0.106363
6 -0.05 0.106363
6.2 -0.05 0.106363
6.4 -0.05 0.106363
6.6 -0.05 0.106363
6.8 -0.05 0.106363
7 -0.05 0.106363
7.2 -0.05 0.106363
7.4 -0.05 0.106363
7.6 -0.05 0.106363
7.8 -0.05 0.106363
8 -0.05 0.106363
8.2 -0.05 0.106363
8.4 -0.05 0.106363
8.6 -0.05 0.106363
8.8 -0.05 0.106363
9 -0.05 0.106363
9.2 -0.05 0.106363
9.4 -0.05 0.106363
9.6 -0.05 0.106363
9.8 -0.05 0.106363
10 -0.05 0.106363
10.2 -0.05 0.106363
10.4 -0.05 0.106363
10.6 -0.05 0.106363
10.8 -0.05 0.106363
11 -0.05 0.106363
11.2 -0.05 0.106363
11.4 -0.05 0.106363
11.6 -0.05 0.106363
11.8 -0.05 0.106363
12 -0.05 0.106363
12.2 -0.05 0.106363
12.4 -0.05 0.106363
12.6 -0.05 0.106363
12.8 -0.05 0.106363
13 -0.05 0.106363
13.2 -0.05 0.106363
13.4 -0.05 0.106363
13.6 -0.05 0.106363
13.8 -0.05 0.106363
14 -0.05 0.106363
14.2 -0.05 0.106363
14.4 -0.05 0.106363
14.6 -0.05 0.106363
14.8 -0.05 0.106363
15 -0.05 0.106363
-1.001 -0.05 0.158995
-1.0008 -0.05 0.158995
-1.0006 -0.05 0.158995
-1.0004 -0.05 0.158995
-1.0002 -0.05 0.158995
-1 -0.05 0.158995
-0.8 -0.05 0.158995
-0.6 -0.05 0.158995
-0.4 -0.05 0.158995
-0.2 -0.05 0.158995
0 -0.05 0.158995
0.2 -0.05 0.158995
0.4 -0.05 0.158995
0.6 -0.05 0.158995
0.8 -0.05 0.158995
1 -0.05 0.158995
1.2 -0.05 0.158995
1.4 -0.05 0.158995
1.6 -0.05 0.158995
1.8 -0.05 0.158995
2 -0.05 0.158995
2.2 -0.05 0.158995
2.4 -0.05 0.158995
2.6 -0.05 0.158995
2.8 -0.05 0.158995
3 -0.05 0.158995
3.2 -0.05 0.158995
3.4 -0.05 0.158995
3.6 -0.05 0.158995
3.8 -0.05 0.158995
4 -0.05 0.158995
4.2 -0.05 0.158995
4.4 -0.05 0.158995
4.6 -0.05 0.158995
4.8 -0.05 0.158995
5 -0.05 0.158995
5.2 -0.05 0.158995
5.4 -0.05 0.158995
5.6 -0.05 0.158995
5.8 -0.05 0.158995
6 -0.05 0.158995
6.2 -0.05 0.158995
6.4 -0.05 0.158995
6.6 -0.05 0.158995
6.8 -0.05 0.158995
7 -0.05 0.158995
7.2 -0.05 0.158995
7.4 -0.05 0.158995
7.6 -0.05 0.158995
7.8 -0.05 0.158995
8 -0.05 0.158995
8.2 -0.05 0.158995
8.4 -0.05 0.158995
8.6 -0.05 0.158995
8.8 -0.05 0.158995
9 -0.05 0.158995
9.2 -0.05 0.158995
9.4 -0.05 0.158995
9.6 -0.05 0.158995
9.8 -0.05 0.158995
10 -0.05 0.158995
10.2 -0.05 0.158995
10.4 -0.05 0.158995
10.6 -0.05 0.158995
10.8 -0.05 0.158995
11 -0.05 0.158995
11.2 -0.05 0.158995
11.4 -0.05 0.158995
11.6 -0.05 0.158995
11.8 -0.05 0.158995
12 -0.05 0.158995
12.2 -0.05 0.158995
12.4 -0.05 0.158995
12.6 -0.05 0.158995
12.8 -0.05 0.158995
13 -0.05 0.158995
13.2 -0.05 0.158995
13.4 -0.05 0.158995
13.6 -0.05 0.158995
13.8 -0.05 0.158995
14 -0.05 0.158995
14.2 -0.05 0.158995
14.4 -0.05 0.158995
14.6 -0.05 0.158995
14.8 -0.05 0.158995
15 -0.05 0.158995
-1.001 -0.05 0.211626
-1.0008 -0.05 0.211626
-1.0006 -0.05 0.211626
-1.0004 -0.05 0.211626
-1.0002 -0.05 0.211626
-1 -0.05 0.211626
-0.8 -0.05 0.211626
-0.6 -0.05 0.211626
-0.4 -0.05 0.211626
-0.2 -0.05 0.211626
0 -0.05 0.211626
0.2 -0.05 0.211626
0.4 -0.05 0.211626
0.6 -0.05 0.211626
0.8 -0.05 0.211626
1 -0.05 0.211626
1.2 -0.05 0.211626
1.4 -0.05 0.211626
1.6 -0.05 0.211626
1.8 -0.05 0.211626
2 -0.05 0.211626
2.2 -0.05 0.211626
2.4 -0.05 0.211626
2.6 -0.05 0.211626
2.8 -0.05 0.211626
3 -0.05 0.211626
3.2 -0.05 0.211626
3.4 -0.05 0.211626
3.6 -0.05 0.211626
3.8 -0.05 0.211626
4 -0.05 0.211626
4.2 -0.05 0.211626
4.4 -0.05 0.211626
4.6 -0.05 0.211626
4.8 -0.05 0.211626
5 -0.05 0.211626
5.2 -0.05 0.211626
5.4 -0.05 0.211626
5.6 -0.05 0.211626
5.8 -0.05 0.211626
6 -0.05 0.211626
6.2 -0.05 0.211626
6.4 -0.05 0.211626
6.6 -0.05 0.211626
6.8 -0.05 0.211626
7 -0.05 0.211626
7.2 -0.05 0.211626
7.4 -0.05 0.211626
7.6 -0.05 0.211626
7.8 -0.05 0.211626
8 -0.05 0.211626
8.2 -0.05 0.211626
8.4 -0.05 0.211626
8.6 -0.05 0.211626
8.8 -0.05 0.211626
9 -0.05 0.211626
9.2 -0.05 0.211626
9.4 -0.05 0.211626
9.6 -0.05 0.211626
9.8 -0.05 0.211626
10 -0.05 0.211626
10.2 -0.05 0.211626
10.4 -0.05 0.211626
10.6 -0.05 0.211626
10.8 -0.05 0.211626
11 -0.05 0.211626
11.2 -0.05 0.211626
11.4 -0.05 0.211626
11.6 -0.05 0.211626
11.8 -0.05 0.211626
12 -0.05 0.211626
12.2 -0.05 0.211626
12.4 -0.05 0.211626
12.6 -0.05 0.211626
12.8 -0.05 0.211626
13 -0.05 0.211626
13.2 -0.05 0.211626
13.4 -0.05 0.211626
13.6 -0.05 0.211626
13.8 -0.05 0.211626
14 -0.05 0.211626
14.2 -0.05 0.211626
14.4 -0.05 0.211626
14.6 -0.05 0.211626
14.8 -0.05 0.211626
15 -0.05 0.211626
-1.001 -0.05 0.264258
-1.0008 -0.05 0.264258
-1.0006 -0.05 0.264258
-1.0004 -0.05 0.264258
-1.0002 -0.05 0.264258
-1 -0.05 0.264258
-0.8 -0.05 0.264258
-0.6 -0.05 0.264258
-0.4 -0.05 0.264258
-0.2 -0.05 0.264258
0 -0.05 0.264258
0.2 -0.05 0.264258
0.4 -0.05 0.264258
0.6 -0.05 0.264258
0.8 -0.05 0.264258
1 -0.05 0.264258
1.2 -0.05 0.264258
1.4 -0.05 0.264258
1.6 -0.05 0.264258
1.8 -0.05 0.264258
2 -0.05 0.264258
2.2 -0.05 0.264258
2.4 -0.05 0.264258
2.6 -0.05 0.264258
2.8 -0.05 0.264258
3 -0.05 0.264258
3.2 -0.05 0.264258
3.4 -0.05 0.264258
3.6 -0.05 0.264258
3.8 -0.05 0.264258
4 -0.05 0.264258
4.2 -0.05 0.264258
4.4 -0.05 0.264258
4.6 -0.05 0.264258
4.8 -0.05 0.264258
5 -0.05 0.264258
5.2 -0.05 0.264258
5.4 -0.05 0.264258
5.6 -0.05 0.264258
5.8 -0.05 0.264258
6 -0.05 0.264258
6.2 -0.05 0.264258
6.4 -0.05 0.264258
6.6 -0.05 0.264258
6.8 -0.05 0.264258
7 -0.05 0.264258
7.2 -0.05 0.264258
7.4 -0.05 0.264258
7.6 -0.05 0.264258
7.8 -0.05 0.264258
8 -0.05 0.264258
8.2 -0.05 0.264258
8.4 -0.05 0.264258
8.6 -0.05 0.264258
8.8 -0.05 0.264258
9 -0.05 0.264258
9.2 -0.05 0.264258
9.4 -0.05 0.264258
9.6 -0.05 0.264258
9.8 -0.05 0.264258
10 -0.05 0.264258
10.2 -0.05 0.264258
10.4 -0.05 0.264258
10.6 -0.05 0.264258
10.8 -0.05 0.264258
11 -0.05 0.264258
11.2 -0.05 0.264258
11.4 -0.05 0.264258
11.6 -0.05 0.264258
11.8 -0.05 0.264258
12 -0.05 0.264258
12.2 -0.05 0.264258
12.4 -0.05 0.264258
12.6 -0.05 0.264258
12.8 -0.05 0.264258
13 -0.05 0.264258
13.2 -0.05 0.264258
13.4 -0.05 0.264258
13.6 -0.05 0.264258
13.8 -0.05 0.264258
14 -0.05 0.264258
14.2 -0.05 0.264258
14.4 -0.05 0.264258
14.6 -0.05 0.264258
14.8 -0.05 0.264258
15 -0.05 0.264258
-1.001 -0.05 0.316889
-1.0008 -0.05 0.316889
-1.0006 -0.05 0.316889
-1.0004 -0.05 0.316889
[...]
POINT_DATA 1720
 FIELD attributes 1
U 3 1720 float
20 	-4.32558e-19 	2.40685e-18 20 	-3.51263e-19 	2.12955e-18 20 	-2.69968e-19 	1.85226e-18 20 	-1.88674e-19 	1.57496e-18 20 	-1.07379e-19 	1.29767e-18 20 	-2.60844e-20 	1.02037e-18 20 	-1.72517e-20 	2.52146e-18 20 	-1.72517e-20 	2.52146e-18 20 	-1.72517e-20 	2.52146e-18 20 	-1.72517e-20 	2.52146e-18 20 	-1.21307e-20 	1.11319e-18 20 	-3.8954e-19 	9.45717e-19 20 	-3.8954e-19 	9.45717e-19 20 	-3.8954e-19 	9.45717e-19 20 	-3.8954e-19 	9.45717e-19 20 	-1.32337e-19 	7.12897e-19 20 	-9.6304e-19 	4.83198e-19 20 	-9.6304e-19 	4.83198e-19 20 	-9.6304e-19 	4.83198e-19 20 	-9.6304e-19 	4.83198e-19 20 	-6.5435e-19 	1.39788e-19 20 	-2.73686e-18 	3.85396e-19 20 	-2.73686e-18 	3.85396e-19 20 	-2.73686e-18 	3.85396e-19 20 	-2.73686e-18 	3.85396e-19 20 	-1.39307e-18 	-3.21852e-20 20 	-3.55715e-18 	3.55543e-19 20 	-3.55715e-18 	3.55543e-19 20 	-3.55715e-18 	3.55543e-19 20 	-3.55715e-18 	3.55543e-19 20 	-1.00099e-18 	-2.8311e-19 20 	-1.00429e-18 	1.07675e-18 20 	-1.00429e-18 	1.07675e-18 20 	-1.00429e-18 	1.07675e-18 20 	-1.00429e-18 	1.07675e-18 20 	-5.02467e-19 	-4.41966e-19 20 	-3.17835e-18 	-2.12907e-19 20 	-3.17835e-18 	-2.12907e-19 20 	-3.17835e-18 	-2.12907e-19 20 	-3.17835e-18 	-2.12907e-19 20 	-1.10449e-18 	-6.16654e-19 20 	-3.13275e-18 	-8.0967e-19 20 	-3.13275e-18 	-8.0967e-19 20 	-3.13275e-18 	-8.0967e-19 20 	-3.13275e-18 	-8.0967e-19 20 	-1.86168e-18 	-6.31613e-19 20 	-3.28887e-18 	-9.30274e-19 20 	-3.28887e-18 	-9.30274e-19 20 	-3.28887e-18 	-9.30274e-19 20 	-3.28887e-18 	-9.30274e-19 20 	-2.10888e-18 	4.35902e-20 20 	-4.10922e-18 	1.31439e-18 20 	-4.10922e-18 	1.31439e-18 20 	-4.10922e-18 	1.31439e-18 20 	-4.10922e-18 	1.31439e-18 20 	-1.84393e-18 	-1.19858e-19 20 	-3.09025e-18 	-8.38895e-19 20 	-3.09025e-18 	-8.38895e-19 20 	-3.09025e-18 	-8.38895e-19 20 	-3.09025e-18 	-8.38895e-19 20 	-1.61231e-18 	-5.01884e-19 20 	-3.19815e-18 	4.57045e-19 20 	-3.19815e-18 	4.57045e-19 20 	-3.19815e-18 	4.57045e-19 20 	-3.19815e-18 	4.57045e-19 20 	-1.32447e-18 	-5.43996e-19 20 	-2.03042e-19 	-5.27912e-19 20 	-2.03042e-19 	-5.27912e-19 20 	-2.03042e-19 	-5.27912e-19 20 	-2.03042e-19 	-5.27912e-19 20 	-1.11139e-18 	-6.11681e-19 20 	-2.48882e-18 	-5.951e-19 20 	-2.48882e-18 	-5.951e-19 20 	-2.48882e-18 	-5.951e-19 20 	-2.48882e-18 	-5.951e-19 20 	-1.44559e-18 	1.1577e-19 20 	-3.81841e-18 	7.90743e-19 20 	-3.81841e-18 	7.90743e-19 20 	-3.81841e-18 	7.90743e-19 20 	-3.81841e-18 	7.90743e-19 20 	-1.86063e-18 	5.66001e-19 20 	-2.09661e-16 	8.8896e-17 20 	-4.17471e-16 	1.75832e-16 20 	-6.2528e-16 	2.62767e-16 20 	-8.3309e-16 	3.49703e-16 20 	-1.01421e-15 	4.27139e-16
20 	-1.68062e-18 	5.12286e-17 20 	-1.59932e-18 	5.09513e-17 20 	-1.51803e-18 	5.0674e-17 20 	-1.43673e-18 	5.03967e-17 20 	-1.35544e-18 	5.01194e-17 20 	-1.27414e-18 	4.98421e-17 20 	-8.2532e-19 	1.18388e-16 20 	-8.2532e-19 	1.18388e-16 20 	-8.2532e-19 	1.18388e-16 20 	-8.2532e-19 	1.18388e-16 20 	-5.92549e-19 	5.43758e-17 20 	-1.81553e-17 	4.54056e-17 20 	-1.81553e-17 	4.54056e-17 20 	-1.81553e-17 	4.54056e-17 20 	-1.81553e-17 	4.54056e-17 20 	-6.46425e-18 	3.48228e-17 20 	-4.59943e-17 	2.24378e-17 20 	-4.59943e-17 	2.24378e-17 20 	-4.59943e-17 	2.24378e-17 20 	-4.59943e-17 	2.24378e-17 20 	-3.1963e-17 	6.8282e-18 20 	-1.29128e-16 	1.74088e-17 20 	-1.29128e-16 	1.74088e-17 20 	-1.29128e-16 	1.74088e-17 20 	-1.29128e-16 	1.74088e-17 20 	-6.80471e-17 	-1.57215e-18 20 	-1.65085e-16 	1.52006e-17 20 	-1.65085e-16 	1.52006e-17 20 	-1.65085e-16 	1.52006e-17 20 	-1.65085e-16 	1.52006e-17 20 	-4.88955e-17 	-1.3829e-17 20 	-4.73542e-17 	4.74439e-17 20 	-4.73542e-17 	4.74439e-17 20 	-4.73542e-17 	4.74439e-17 20 	-4.73542e-17 	4.74439e-17 20 	-2.45439e-17 	-2.15887e-17 20 	-1.48217e-16 	-1.17695e-17 20 	-1.48217e-16 	-1.17695e-17 20 	-1.48217e-16 	-1.17695e-17 20 	-1.48217e-16 	-1.17695e-17 20 	-5.3951e-17 	-3.01216e-17 20 	-1.48713e-16 	-3.89458e-17 20 	-1.48713e-16 	-3.89458e-17 20 	-1.48713e-16 	-3.89458e-17 20 	-1.48713e-16 	-3.89458e-17 20 	-9.09373e-17 	-3.08523e-17 20 	-1.56648e-16 	-4.21373e-17 20 	-1.56648e-16 	-4.21373e-17 20 	-1.56648e-16 	-4.21373e-17 20 	-1.56648e-16 	-4.21373e-17 20 	-1.03012e-16 	2.12924e-18 20 	-1.93038e-16 	5.93382e-17 20 	-1.93038e-16 	5.93382e-17 20 	-1.93038e-16 	5.93382e-17 20 	-1.93038e-16 	5.93382e-17 20 	-9.00702e-17 	-5.85467e-18 20 	-1.45935e-16 	-3.98342e-17 20 	-1.45935e-16 	-3.98342e-17 20 	-1.45935e-16 	-3.98342e-17 20 	-1.45935e-16 	-3.98342e-17 20 	-7.87563e-17 	-2.45155e-17 20 	-1.49863e-16 	1.89293e-17 20 	-1.49863e-16 	1.89293e-17 20 	-1.49863e-16 	1.89293e-17 20 	-1.49863e-16 	1.89293e-17 20 	-6.46963e-17 	-2.65725e-17 20 	-1.29994e-17 	-2.6071e-17 20 	-1.29994e-17 	-2.6071e-17 20 	-1.29994e-17 	-2.6071e-17 20 	-1.29994e-17 	-2.6071e-17 20 	-5.42879e-17 	-2.98787e-17 20 	-1.18032e-16 	-2.66573e-17 20 	-1.18032e-16 	-2.66573e-17 20 	-1.18032e-16 	-2.66573e-17 20 	-1.18032e-16 	-2.66573e-17 20 	-7.06128e-17 	5.65502e-18 20 	-1.79876e-16 	3.7863e-17 20 	-1.79876e-16 	3.7863e-17 20 	-1.79876e-16 	3.7863e-17 20 	-1.79876e-16 	3.7863e-17 20 	-9.08858e-17 	2.76474e-17 20 	-2.95103e-16 	1.76024e-16 20 	-5.02913e-16 	2.62959e-16 20 	-7.10723e-16 	3.49895e-16 20 	-9.18533e-16 	4.3683e-16 20 	-1.05873e-15 	4.26778e-16
20 	-2.92868e-18 	1.0005e-16 20 	-2.84738e-18 	9.97731e-17 20 	-2.76609e-18 	9.94958e-17 20 	-2.68479e-18 	9.92185e-17 20 	-2.6035e-18 	9.89412e-17 20 	-2.5222e-18 	9.86639e-17 20 	-1.40574e-18 	1.71651e-16 20 	-1.40574e-18 	1.71651e-16 20 	-1.40574e-18 	1.71651e-16 20 	-1.40574e-18 	1.71651e-16 20 	-1.17297e-18 	1.07638e-16 20 	-2.44872e-17 	7.95155e-17 20 	-2.44872e-17 	7.95155e-17 20 	-2.44872e-17 	7.95155e-17 20 	-2.44872e-17 	7.95155e-17 20 	-1.27962e-17 	6.89327e-17 20 	-7.7303e-17 	2.91262e-17 20 	-7.7303e-17 	2.91262e-17 20 	-7.7303e-17 	2.91262e-17 20 	-7.7303e-17 	2.91262e-17 20 	-6.32716e-17 	1.35166e-17 20 	-1.95782e-16 	1.58689e-17 20 	-1.95782e-16 	1.58689e-17 20 	-1.95782e-16 	1.58689e-17 20 	-1.95782e-16 	1.58689e-17 20 	-1.34701e-16 	-3.11211e-18 20 	-2.12979e-16 	1.65472e-18 20 	-2.12979e-16 	1.65472e-18 20 	-2.12979e-16 	1.65472e-18 20 	-2.12979e-16 	1.65472e-18 20 	-9.679e-17 	-2.7375e-17 20 	-7.13956e-17 	2.62972e-17 20 	-7.13956e-17 	2.62972e-17 20 	-7.13956e-17 	2.62972e-17 20 	-7.13956e-17 	2.62972e-17 20 	-4.85854e-17 	-4.27354e-17 20 	-2.01064e-16 	-4.12745e-17 20 	-2.01064e-16 	-4.12745e-17 20 	-2.01064e-16 	-4.12745e-17 20 	-2.01064e-16 	-4.12745e-17 20 	-1.06797e-16 	-5.96266e-17 20 	-2.37789e-16 	-6.91665e-17 20 	-2.37789e-16 	-6.91665e-17 20 	-2.37789e-16 	-6.91665e-17 20 	-2.37789e-16 	-6.91665e-17 20 	-1.80013e-16 	-6.1073e-17 20 	-2.57551e-16 	-4.00516e-17 20 	-2.57551e-16 	-4.00516e-17 20 	-2.57551e-16 	-4.00516e-17 20 	-2.57551e-16 	-4.00516e-17 20 	-2.03915e-16 	4.2149e-18 20 	-2.81264e-16 	5.36034e-17 20 	-2.81264e-16 	5.36034e-17 20 	-2.81264e-16 	5.36034e-17 20 	-2.81264e-16 	5.36034e-17 20 	-1.78296e-16 	-1.15895e-17 20 	-2.23079e-16 	-6.38478e-17 20 	-2.23079e-16 	-6.38478e-17 20 	-2.23079e-16 	-6.38478e-17 20 	-2.23079e-16 	-6.38478e-17 20 	-1.559e-16 	-4.85291e-17 20 	-2.13235e-16 	-7.09921e-18 20 	-2.13235e-16 	-7.09921e-18 20 	-2.13235e-16 	-7.09921e-18 20 	-2.13235e-16 	-7.09921e-18 20 	-1.28068e-16 	-5.26011e-17 20 	-6.61758e-17 	-5.53381e-17 20 	-6.61758e-17 	-5.53381e-17 20 	-6.61758e-17 	-5.53381e-17 20 	-6.61758e-17 	-5.53381e-17 20 	-1.07464e-16 	-5.91457e-17 20 	-1.87199e-16 	-2.1118e-17 20 	-1.87199e-16 	-2.1118e-17 20 	-1.87199e-16 	-2.1118e-17 20 	-1.87199e-16 	-2.1118e-17 20 	-1.3978e-16 	1.11943e-17 20 	-2.68901e-16 	6.49443e-17 20 	-2.68901e-16 	6.49443e-17 20 	-2.68901e-16 	6.49443e-17 20 	-2.68901e-16 	6.49443e-17 20 	-1.79911e-16 	5.47288e-17 20 	-3.39624e-16 	1.75662e-16 20 	-5.47434e-16 	2.62597e-16 20 	-7.55244e-16 	3.49533e-16 20 	-9.63054e-16 	4.36468e-16 20 	-1.10325e-15 	4.26416e-16
20 	-4.17674e-18 	1.48872e-16 20 	-4.09544e-18 	1.48595e-16 20 	-4.01415e-18 	1.48318e-16 20 	-3.93285e-18 	1.4804e-16 20 	-3.85156e-18 	1.47763e-16 20 	-3.77026e-18 	1.47486e-16 20 	-1.98616e-18 	2.24913e-16 20 	-1.98616e-18 	2.24913e-16 20 	-1.98616e-18 	2.24913e-16 20 	-1.98616e-18 	2.24913e-16 20 	-1.75339e-18 	1.60901e-16 20 	-3.08191e-17 	1.13625e-16 20 	-3.08191e-17 	1.13625e-16 20 	-3.08191e-17 	1.13625e-16 20 	-3.08191e-17 	1.13625e-16 20 	-1.91281e-17 	1.03043e-16 20 	-1.08612e-16 	3.58146e-17 20 	-1.08612e-16 	3.58146e-17 20 	-1.08612e-16 	3.58146e-17 20 	-1.08612e-16 	3.58146e-17 20 	-9.45802e-17 	2.0205e-17 20 	-2.62436e-16 	1.43289e-17 20 	-2.62436e-16 	1.43289e-17 20 	-2.62436e-16 	1.43289e-17 20 	-2.62436e-16 	1.43289e-17 20 	-2.01355e-16 	-4.65207e-18 20 	-2.60873e-16 	-1.18912e-17 20 	-2.60873e-16 	-1.18912e-17 20 	-2.60873e-16 	-1.18912e-17 20 	-2.60873e-16 	-1.18912e-17 20 	-1.44684e-16 	-4.09209e-17 20 	-9.54371e-17 	5.15046e-18 20 	-9.54371e-17 	5.15046e-18 20 	-9.54371e-17 	5.15046e-18 20 	-9.54371e-17 	5.15046e-18 20 	-7.26269e-17 	-6.38821e-17 20 	-2.5391e-16 	-7.07794e-17 20 	-2.5391e-16 	-7.07794e-17 20 	-2.5391e-16 	-7.07794e-17 20 	-2.5391e-16 	-7.07794e-17 20 	-1.59644e-16 	-8.91315e-17 20 	-3.26865e-16 	-9.93872e-17 20 	-3.26865e-16 	-9.93872e-17 20 	-3.26865e-16 	-9.93872e-17 20 	-3.26865e-16 	-9.93872e-17 20 	-2.69089e-16 	-9.12938e-17 20 	-3.58455e-16 	-3.7966e-17 20 	-3.58455e-16 	-3.7966e-17 20 	-3.58455e-16 	-3.7966e-17 20 	-3.58455e-16 	-3.7966e-17 20 	-3.04818e-16 	6.30055e-18 20 	-3.69491e-16 	4.78686e-17 20 	-3.69491e-16 	4.78686e-17 20 	-3.69491e-16 	4.78686e-17 20 	-3.69491e-16 	4.78686e-17 20 	-2.66523e-16 	-1.73243e-17 20 	-3.00223e-16 	-8.78614e-17 20 	-3.00223e-16 	-8.78614e-17 20 	-3.00223e-16 	-8.78614e-17 20 	-3.00223e-16 	-8.78614e-17 20 	-2.33044e-16 	-7.25427e-17 20 	-2.76607e-16 	-3.31277e-17 20 	-2.76607e-16 	-3.31277e-17 20 	-2.76607e-16 	-3.31277e-17 20 	-2.76607e-16 	-3.31277e-17 20 	-1.9144e-16 	-7.86296e-17 20 	-1.19352e-16 	-8.46051e-17 20 	-1.19352e-16 	-8.46051e-17 20 	-1.19352e-16 	-8.46051e-17 20 	-1.19352e-16 	-8.46051e-17 20 	-1.60641e-16 	-8.84127e-17 20 	-2.56366e-16 	-1.55788e-17 20 	-2.56366e-16 	-1.55788e-17 20 	-2.56366e-16 	-1.55788e-17 20 	-2.56366e-16 	-1.55788e-17 20 	-2.08947e-16 	1.67335e-17 20 	-3.57926e-16 	9.20257e-17 20 	-3.57926e-16 	9.20257e-17 20 	-3.57926e-16 	9.20257e-17 20 	-3.57926e-16 	9.20257e-17 20 	-2.68936e-16 	8.18101e-17 20 	-3.84145e-16 	1.753e-16 20 	-5.91955e-16 	2.62235e-16 20 	-7.99765e-16 	3.49171e-16 20 	-1.00757e-15 	4.36106e-16 20 	-1.14777e-15 	4.26054e-16
20 	-5.42479e-18 	1.97694e-16 20 	-5.3435e-18 	1.97417e-16 20 	-5.26221e-18 	1.97139e-16 20 	-5.18091e-18 	1.96862e-16 20 	-5.09962e-18 	1.96585e-16 20 	-5.01832e-18 	1.96307e-16 20 	-2.71406e-18 	2.77195e-16 20 	-2.56657e-18 	2.78176e-16 20 	-2.56657e-18 	2.78176e-16 20 	-2.56657e-18 	2.78176e-16 20 	-2.3338e-18 	2.14164e-16 20 	-3.58805e-17 	1.51966e-16 20 	-3.7151e-17 	1.47735e-16 20 	-3.7151e-17 	1.47735e-16 20 	-3.7151e-17 	1.47735e-16 20 	-2.546e-17 	1.37153e-16 20 	-1.34403e-16 	4.85604e-17 20 	-1.3992e-16 	4.2503e-17 20 	-1.3992e-16 	4.2503e-17 20 	-1.3992e-16 	4.2503e-17 20 	-1.25889e-16 	2.68934e-17 20 	-3.21283e-16 	1.46066e-17 20 	-3.2909e-16 	1.27889e-17 20 	-3.2909e-16 	1.27889e-17 20 	-3.2909e-16 	1.27889e-17 20 	-2.68009e-16 	-6.19204e-18 20 	-3.12912e-16 	-2.2785e-17 20 	-3.08768e-16 	-2.54371e-17 20 	-3.08768e-16 	-2.54371e-17 20 	-3.08768e-16 	-2.54371e-17 20 	-1.92579e-16 	-5.44668e-17 20 	-1.24748e-16 	-1.43172e-17 20 	-1.19479e-16 	-1.59962e-17 20 	-1.19479e-16 	-1.59962e-17 20 	-1.19479e-16 	-1.59962e-17 20 	-9.66683e-17 	-8.50288e-17 20 	-3.00394e-16 	-9.8438e-17 20 	-3.06757e-16 	-1.00284e-16 20 	-3.06757e-16 	-1.00284e-16 20 	-3.06757e-16 	-1.00284e-16 20 	-2.1249e-16 	-1.18636e-16 20 	-4.07937e-16 	-1.2945e-16 20 	-4.1594e-16 	-1.29608e-16 20 	-4.1594e-16 	-1.29608e-16 20 	-4.1594e-16 	-1.29608e-16 20 	-3.58164e-16 	-1.21514e-16 20 	-4.56745e-16 	-4.30168e-17 20 	-4.59358e-16 	-3.58803e-17 20 	-4.59358e-16 	-3.58803e-17 20 	-4.59358e-16 	-3.58803e-17 20 	-4.05722e-16 	8.38621e-18 20 	-4.60517e-16 	4.38613e-17 20 	-4.57717e-16 	4.21338e-17 20 	-4.57717e-16 	4.21338e-17 20 	-4.57717e-16 	4.21338e-17 20 	-3.54749e-16 	-2.30591e-17 20 	-3.79815e-16 	-1.07837e-16 20 	-3.77367e-16 	-1.11875e-16 20 	-3.77367e-16 	-1.11875e-16 20 	-3.77367e-16 	-1.11875e-16 20 	-3.10188e-16 	-9.65563e-17 20 	-3.43021e-16 	-5.87112e-17 20 	-3.39979e-16 	-5.91563e-17 20 	-3.39979e-16 	-5.91563e-17 20 	-3.39979e-16 	-5.91563e-17 20 	-2.54812e-16 	-1.04658e-16 20 	-1.74781e-16 	-1.13157e-16 20 	-1.72529e-16 	-1.13872e-16 20 	-1.72529e-16 	-1.13872e-16 20 	-1.72529e-16 	-1.13872e-16 20 	-2.13817e-16 	-1.1768e-16 20 	-3.22001e-16 	-1.77282e-17 20 	-3.25534e-16 	-1.00395e-17 20 	-3.25534e-16 	-1.00395e-17 20 	-3.25534e-16 	-1.00395e-17 20 	-2.78114e-16 	2.22728e-17 20 	-4.42565e-16 	1.14348e-16 20 	-4.46952e-16 	1.19107e-16 20 	-4.46952e-16 	1.19107e-16 20 	-4.46952e-16 	1.19107e-16 20 	-3.57961e-16 	1.08892e-16 20 	-4.38497e-16 	1.81e-16 20 	-6.36476e-16 	2.61873e-16 20 	-8.44286e-16 	3.48809e-16 20 	-1.0521e-15 	4.35745e-16 20 	-1.19229e-15 	4.25692e-16
20 	-6.67285e-18 	2.46516e-16 20 	-6.59156e-18 	2.46238e-16 20 	-6.51026e-18 	2.45961e-16 20 	-6.42897e-18 	2.45684e-16 20 	-6.34768e-18 	2.45406e-16 20 	-6.26638e-18 	2.45129e-16 20 	-3.96212e-18 	3.26017e-16 20 	-3.14699e-18 	3.31438e-16 20 	-3.14699e-18 	3.31438e-16 20 	-3.14699e-18 	3.31438e-16 20 	-2.91422e-18 	2.67426e-16 20 	-3.64609e-17 	2.05229e-16 20 	-4.34829e-17 	1.81845e-16 20 	-4.34829e-17 	1.81845e-16 20 	-4.34829e-17 	1.81845e-16 20 	-3.17919e-17 	1.71262e-16 20 	-1.40735e-16 	8.26703e-17 20 	-1.71229e-16 	4.91914e-17 20 	-1.71229e-16 	4.91914e-17 20 	-1.71229e-16 	4.91914e-17 20 	-1.57198e-16 	3.35818e-17 20 	-3.52591e-16 	2.1295e-17 20 	-3.95744e-16 	1.1249e-17 20 	-3.95744e-16 	1.1249e-17 20 	-3.95744e-16 	1.1249e-17 20 	-3.34663e-16 	-7.732e-18 20 	-3.79566e-16 	-2.4325e-17 20 	-3.56662e-16 	-3.89831e-17 20 	-3.56662e-16 	-3.89831e-17 20 	-3.56662e-16 	-3.89831e-17 20 	-2.40473e-16 	-6.80128e-17 20 	-1.72642e-16 	-2.78632e-17 20 	-1.4352e-16 	-3.7143e-17 20 	-1.4352e-16 	-3.7143e-17 20 	-1.4352e-16 	-3.7143e-17 20 	-1.2071e-16 	-1.06176e-16 20 	-3.24435e-16 	-1.19585e-16 20 	-3.59603e-16 	-1.29789e-16 20 	-3.59603e-16 	-1.29789e-16 20 	-3.59603e-16 	-1.29789e-16 20 	-2.65337e-16 	-1.48141e-16 20 	-4.60784e-16 	-1.58955e-16 20 	-5.05016e-16 	-1.59829e-16 20 	-5.05016e-16 	-1.59829e-16 20 	-5.05016e-16 	-1.59829e-16 20 	-4.4724e-16 	-1.51735e-16 20 	-5.45821e-16 	-7.32375e-17 20 	-5.60261e-16 	-3.37947e-17 20 	-5.60261e-16 	-3.37947e-17 20 	-5.60261e-16 	-3.37947e-17 20 	-5.06625e-16 	1.04719e-17 20 	-5.6142e-16 	4.5947e-17 20 	-5.45943e-16 	3.6399e-17 20 	-5.45943e-16 	3.6399e-17 20 	-5.45943e-16 	3.6399e-17 20 	-4.42975e-16 	-2.87939e-17 20 	-4.68041e-16 	-1.13572e-16 20 	-4.54511e-16 	-1.35889e-16 20 	-4.54511e-16 	-1.35889e-16 20 	-4.54511e-16 	-1.35889e-16 20 	-3.87332e-16 	-1.2057e-16 20 	-4.20165e-16 	-8.27248e-17 20 	-4.03351e-16 	-8.51848e-17 20 	-4.03351e-16 	-8.51848e-17 20 	-4.03351e-16 	-8.51848e-17 20 	-3.18184e-16 	-1.30687e-16 20 	-2.38153e-16 	-1.39185e-16 20 	-2.25705e-16 	-1.43139e-16 20 	-2.25705e-16 	-1.43139e-16 20 	-2.25705e-16 	-1.43139e-16 20 	-2.66994e-16 	-1.46947e-16 20 	-3.75178e-16 	-4.69952e-17 20 	-3.94701e-16 	-4.50026e-18 20 	-3.94701e-16 	-4.50026e-18 20 	-3.94701e-16 	-4.50026e-18 20 	-3.47281e-16 	2.7812e-17 20 	-5.11732e-16 	1.19888e-16 20 	-5.35977e-16 	1.46188e-16 20 	-5.35977e-16 	1.46188e-16 20 	-5.35977e-16 	1.46188e-16 20 	-4.46987e-16 	1.35973e-16 20 	-5.27523e-16 	2.08082e-16 20 	-6.80997e-16 	2.61512e-16 20 	-8.88807e-16 	3.48447e-16 20 	-1.09662e-15 	4.35383e-16 20 	-1.23681e-15 	4.2533e-16
20 	-7.92091e-18 	2.95337e-16 20 	-7.83962e-18 	2.9506e-16 20 	-7.75832e-18 	2.94783e-16 20 	-7.67703e-18 	2.94506e-16 20 	-7.59574e-18 	2.94228e-16 20 	-7.51444e-18 	2.93951e-16 20 	-5.21018e-18 	3.74838e-16 20 	-3.72741e-18 	3.84701e-16 20 	-3.72741e-18 	3.84701e-16 20 	-3.72741e-18 	3.84701e-16 20 	-3.49464e-18 	3.20689e-16 20 	-3.70413e-17 	2.58491e-16 20 	-4.98148e-17 	2.15955e-16 20 	-4.98148e-17 	2.15955e-16 20 	-4.98148e-17 	2.15955e-16 20 	-3.81238e-17 	2.05372e-16 20 	-1.47067e-16 	1.1678e-16 20 	-2.02537e-16 	5.58798e-17 20 	-2.02537e-16 	5.58798e-17 20 	-2.02537e-16 	5.58798e-17 20 	-1.88506e-16 	4.02703e-17 20 	-3.839e-16 	2.79834e-17 20 	-4.62398e-16 	9.70902e-18 20 	-4.62398e-16 	9.70902e-18 20 	-4.62398e-16 	9.70902e-18 20 	-4.01317e-16 	-9.27196e-18 20 	-4.4622e-16 	-2.58649e-17 20 	-4.04557e-16 	-5.2529e-17 20 	-4.04557e-16 	-5.2529e-17 20 	-4.04557e-16 	-5.2529e-17 20 	-2.88368e-16 	-8.15587e-17 20 	-2.20537e-16 	-4.14091e-17 20 	-1.67562e-16 	-5.82897e-17 20 	-1.67562e-16 	-5.82897e-17 20 	-1.67562e-16 	-5.82897e-17 20 	-1.44751e-16 	-1.27322e-16 20 	-3.48477e-16 	-1.40731e-16 20 	-4.1245e-16 	-1.59294e-16 20 	-4.1245e-16 	-1.59294e-16 20 	-4.1245e-16 	-1.59294e-16 20 	-3.18183e-16 	-1.77646e-16 20 	-5.1363e-16 	-1.8846e-16 20 	-5.94092e-16 	-1.90049e-16 20 	-5.94092e-16 	-1.90049e-16 20 	-5.94092e-16 	-1.90049e-16 20 	-5.36316e-16 	-1.81956e-16 20 	-6.34896e-16 	-1.03458e-16 20 	-6.61164e-16 	-3.1709e-17 20 	-6.61164e-16 	-3.1709e-17 20 	-6.61164e-16 	-3.1709e-17 20 	-6.07528e-16 	1.25575e-17 20 	-6.62323e-16 	4.80327e-17 20 	-6.34169e-16 	3.06642e-17 20 	-6.34169e-16 	3.06642e-17 20 	-6.34169e-16 	3.06642e-17 20 	-5.31201e-16 	-3.45287e-17 20 	-5.56268e-16 	-1.19307e-16 20 	-5.31655e-16 	-1.59902e-16 20 	-5.31655e-16 	-1.59902e-16 20 	-5.31655e-16 	-1.59902e-16 20 	-4.64476e-16 	-1.44584e-16 20 	-4.97309e-16 	-1.06738e-16 20 	-4.66723e-16 	-1.11213e-16 20 	-4.66723e-16 	-1.11213e-16 20 	-4.66723e-16 	-1.11213e-16 20 	-3.81555e-16 	-1.56715e-16 20 	-3.01525e-16 	-1.65214e-16 20 	-2.78882e-16 	-1.72406e-16 20 	-2.78882e-16 	-1.72406e-16 20 	-2.78882e-16 	-1.72406e-16 20 	-3.2017e-16 	-1.76214e-16 20 	-4.28354e-16 	-7.62623e-17 20 	-4.63868e-16 	1.03899e-18 20 	-4.63868e-16 	1.03899e-18 20 	-4.63868e-16 	1.03899e-18 20 	-4.16449e-16 	3.33513e-17 20 	-5.80899e-16 	1.25427e-16 20 	-6.25002e-16 	1.7327e-16 20 	-6.25002e-16 	1.7327e-16 20 	-6.25002e-16 	1.7327e-16 20 	-5.36012e-16 	1.63054e-16 20 	-6.16548e-16 	2.35163e-16 20 	-7.25518e-16 	2.6115e-16 20 	-9.33328e-16 	3.48085e-16 20 	-1.14114e-15 	4.35021e-16 20 	-1.28133e-15 	4.24968e-16