# vtk DataFile Version 2.0
track0
ASCII
DATASET POLYDATA
POINTS 1720 float
-1.001 -0.05 0.0011
-1.0008 -0.05 0.0011
-1.0006 -0.05 0.0011
-1.0004 -0.05 0.0011
-1.0002 -0.05 0.0011
-1 -0.05 0.0011
-0.8 -0.05 0.0011
-0.6 -0.05 0.0011
-0.4 -0.05 0.0011
-0.2 -0.05 0.0011
0 -0.05 0.0011
0.2 -0.05 0.0011
0.4 -0.05 0.0011
0.6 -0.05 0.0011
0.8 -0.05 0.0011
1 -0.05 0.0011
1.2 -0.05 0.0011
1.4 -0.05 0.0011
1.6 -0.05 0.0011
1.8 -0.05 0.0011
2 -0.05 0.0011
2.2 -0.05 0.0011
2.4 -0.05 0.0011
2.6 -0.05 0.0011
2.8 -0.05 0.0011
3 -0.05 0.0011
3.2 -0.05 0.0011
3.4 -0.05 0.0011
3.6 -0.05 0.0011
3.8 -0.05 0.0011
4 -0.05 0.0011
4.2 -0.05 0.0011
4.4 -0.05 0.0011
4.6 -0.05 0.0011
4.8 -0.05 0.0011
5 -0.05 0.0011
5.2 -0.05 0.0011
5.4 -0.05 0.0011
5.6 -0.05 0.0011
5.8 -0.05 0.0011
6 -0.05 0.0011
6.2 -0.05 0.0011
6.4 -0.05 0.0011
6.6 -0.05 0.0011
6.8 -0.05 0.0011
7 -0.05 0.0011
7.2 -0.05 0.0011
7.4 -0.05 0.0011
7.6 -0.05 0.0011
7.8 -0.05 0.0011
8 -0.05 0.0011
8.2 -0.05 0.0011
8.4 -0.05 0.0011
8.6 -0.05 0.0011
8.8 -0.05 0.0011
9 -0.05 0.0011
9.2 -0.05 0.0011
9.4 -0.05 0.0011
9.6 -0.05 0.0011
9.8 -0.05 0.0011
10 -0.05 0.0011
10.2 -0.05 0.0011
10.4 -0.05 0.0011
10.6 -0.05 0.0011
10.8 -0.05 0.0011
11 -0.05 0.0011
11.2 -0.05 0.0011
11.4 -0.05 0.0011
11.6 -0.05 0.0011
11.8 -0.05 0.0011
12 -0.05 0.0011
12.2 -0.05 0.0011
12.4 -0.05 0.0011
12.6 -0.05 0.0011
12.8 -0.05 0.0011
13 -0.05 0.0011
13.2 -0.05 0.0011
13.4 -0.05 0.0011
13.6 -0.05 0.0011
13.8 -0.05 0.0011
14 -0.05 0.0011
14.2 -0.05 0.0011
14.4 -0.05 0.0011
14.6 -0.05 0.0011
14.8 -0.05 0.0011
15 -0.05 0.0011
-1.001 -0.05 0.0537316
-1.0008 -0.05 0.0537316
-1.0006 -0.05 0.0537316
-1.0004 -0.05 0.0537316
-1.0002 -0.05 0.0537316
-1 -0.05 0.0537316
-0.8 -0.05 0.0537316
-0.6 -0.05 0.0537316
-0.4 -0.05 0.0537316
-0.2 -0.05 0.0537316
0 -0.05 0.0537316
0.2 -0.05 0.0537316
0.4 -0.05 0.0537316
0.6 -0.05 0.0537316
0.8 -0.05 0.0537316
1 -0.05 0.0537316
1.2 -0.05 0.0537316
1.4 -0.05 0.0537316
1.6 -0.05 0.0537316
1.8 -0.05 0.0537316
2 -0.05 0.0537316
2.2 -0.05 0.0537316
2.4 -0.05 0.0537316
2.6 -0.05 0.0537316
2.8 -0.05 0.0537316
3 -0.05 0.0537316
3.2 -0.05 0.0537316
3.4 -0.05 0.0537316
3.6 -0.05 0.0537316
3.8 -0.05 0.0537316
4 -0.05 0.0537316
4.2 -0.05 0.0537316
4.4 -0.05 0.0537316
4.6 -0.05 0.0537316
4.8 -0.05 0.0537316
5 -0.05 0.0537316
5.2 -0.05 0.0537316
5.4 -0.05 0.0537316
5.6 -0.05 0.0537316
5.8 -0.05 0.0537316
6 -0.05 0.0537316
6.2 -0.05 0.0537316
6.4 -0.05 0.0537316
6.6 -0.05 0.0537316
6.8 -0.05 0.0537316
7 -0.05 0.0537316
7.2 -0.05 0.0537316
7.4 -0.05 0.0537316
7.6 -0.05 0.0537316
7.8 -0.05 0.0537316
8 -0.05 0.0537316
8.2 -0.05 0.0537316
8.4 -0.05 0.0537316
8.6 -0.05 0.0537316
8.8 -0.05 0.0537316
9 -0.05 0.0537316
9.2 -0.05 0.0537316
9.4 -0.05 0.0537316
9.6 -0.05 0.0537316
9.8 -0.05 0.0537316
10 -0.05 0.0537316
10.2 -0.05 0.0537316
10.4 -0.05 0.0537316
10.6 -0.05 0.0537316
10.8 -0.05 0.0537316
11 -0.05 0.0537316
11.2 -0.05 0.0537316
11.4 -0.05 0.0537316
11.6 -0.05 0.0537316
11.8 -0.05 0.0537316
12 -0.05 0.0537316
12.2 -0.05 0.0537316
12.4 -0.05 0.0537316
12.6 -0.05 0.0537316
12.8 -0.05 0.0537316
13 -0.05 0.0537316
13.2 -0.05 0.0537316
13.4 -0.05 0.0537316
13.6 -0.05 0.0537316
13.8 -0.05 0.0537316
14 -0.05 0.0537316
14.2 -0.05 0.0537316
14.4 -0.05 0.0537316
14.6 -0.05 0.0537316
14.8 -0.05 0.0537316
15 -0.05 0.0537316
-1.001 -0.05 0.106363
-1.0008 -0.05 0.106363
-1.0006 -0.05 0.106363
-1.0004 -0.05 0.106363
-1.0002 -0.05 0.106363
-1 -0.05 0.106363
-0.8 -0.05 0.106363
-0.6 -0.05 0.106363
-0.4 -0.05 0.106363
-0.2 -0.05 0.106363
0 -0.05 0.106363
0.2 -0.05 0.106363
0.4 -0.05 0.106363
0.6 -0.05 0.106363
0.8 -0.05 0.106363
1 -0.05 0.106363
1.2 -0.05 0.106363
1.4 -0.05 0.106363
1.6 -0.05 0.106363
1.8 -0.05 0.106363
2 -0.05 0.106363
2.2 -0.05 0.106363
2.4 -0.05 0.106363
2.6 -0.05 0.106363
2.8 -0.05 0.106363
3 -0.05 0.106363
3.2 -0.05 0.106363
3.4 -0.05 0.106363
3.6 -0.05 0.106363
3.8 -0.05 0.106363
4 -0.05 0.106363
4.2 -0.05 0.106363
4.4 -0.05 0.106363
4.6 -0.05 0.106363
4.8 -0.05 0.106363
5 -0.05 0.106363
5.2 -0.05 0.106363
5.4 -0.05 0.106363
5.6 -0.05 0.106363
5.8 -0.05 0.106363
6 -0.05 0.106363
6.2 -0.05 0.106363
6.4 -0.05 0.106363
6.6 -0.05 0.106363
6.8 -0.05 0.106363
7 -0.05 0.106363
7.2 -0.05 0.106363
7.4 -0.05 0.106363
7.6 -0.05 0.106363
7.8 -0.05 0.106363
8 -0.05 0.106363
8.2 -0.05 0.106363
8.4 -0.05 0.106363
8.6 -0.05 0.106363
8.8 -0.05 0.106363
9 -0.05 0.106363
9.2 -0.05 0.106363
9.4 -0.05 0.106363
9.6 -0.05 0.106363
9.8 -0.05 0.106363
10 -0.05 0.106363
10.2 -0.05 0.106363
10.4 -0.05 0.106363
10.6 -0.05 0.106363
10.8 -0.05 0.106363
11 -0.05 0.106363
11.2 -0.05 0.106363
11.4 -0.05 0.106363
11.6 -0.05 0.106363
11.8 -0.05 0.106363
12 -0.05 0.106363
12.2 -0.05 0.106363
12.4 -0.05 0.106363
12.6 -0.05 0.106363
12.8 -0.05 0.106363
13 -0.05 0.106363
13.2 -0.05 0.106363
13.4 -0.05 0.106363
13.6 -0.05 0.106363
13.8 -0.05 0.106363
14 -0.05 0.106363
14.2 -0.05 0.106363
14.4 -0.05 0.106363
14.6 -0.05 0.106363
14.8 -0.05 0.106363
15 -0.05 0.106363
-1.001 -0.05 0.158995
-1.0008 -0.05 0.158995
-1.0006 -0.05 0.158995
-1.0004 -0.05 0.158995
-1.0002 -0.05 0.158995
-1 -0.05 0.158995
-0.8 -0.05 0.158995
-0.6 -0.05 0.158995
-0.4 -0.05 0.158995
-0.2 -0.05 0.158995
0 -0.05 0.158995
0.2 -0.05 0.158995
0.4 -0.05 0.158995
0.6 -0.05 0.158995
0.8 -0.05 0.158995
1 -0.05 0.158995
1.2 -0.05 0.158995
1.4 -0.05 0.158995
1.6 -0.05 0.158995
1.8 -0.05 0.158995
2 -0.05 0.158995
2.2 -0.05 0.158995
2.4 -0.05 0.158995
2.6 -0.05 0.158995
2.8 -0.05 0.158995
3 -0.05 0.158995
3.2 -0.05 0.158995
3.4 -0.05 0.158995
3.6 -0.05 0.158995
3.8 -0.05 0.158995
4 -0.05 0.158995
4.2 -0.05 0.158995
4.4 -0.05 0.158995
4.6 -0.05 0.158995
4.8 -0.05 0.158995
5 -0.05 0.158995
5.2 -0.05 0.158995
5.4 -0.05 0.158995
5.6 -0.05 0.158995
5.8 -0.05 0.158995
6 -0.05 0.158995
6.2 -0.05 0.158995
6.4 -0.05 0.158995
6.6 -0.05 0.158995
6.8 -0.05 0.158995
7 -0.05 0.158995
7.2 -0.05 0.158995
7.4 -0.05 0.158995
7.6 -0.05 0.158995
7.8 -0.05 0.158995
8 -0.05 0.158995
8.2 -0.05 0.158995
8.4 -0.05 0.158995
8.6 -0.05 0.158995
8.8 -0.05 0.158995
9 -0.05 0.158995
9.2 -0.05 0.158995
9.4 -0.05 0.158995
9.6 -0.05 0.158995
9.8 -0.05 0.158995
10 -0.05 0.158995
10.2 -0.05 0.158995
10.4 -0.05 0.158995
10.6 -0.05 0.158995
10.8 -0.05 0.158995
11 -0.05 0.158995
11.2 -0.05 0.158995
11.4 -0.05 0.158995
11.6 -0.05 0.158995
11.8 -0.05 0.158995
12 -0.05 0.158995
12.2 -0.05 0.158995
12.4 -0.05 0.158995
12.6 -0.05 0.158995
12.8 -0.05 0.158995
13 -0.05 0.158995
13.2 -0.05 0.158995
13.4 -0.05 0.158995
13.6 -0.05 0.158995
13.8 -0.05 0.158995
14 -0.05 0.158995
14.2 -0.05 0.158995
14.4 -0.05 0.158995
14.6 -0.05 0.158995
14.8 -0.05 0.158995
15 -0.05 0.158995
-1.001 -0.05 0.211626
-1.0008 -0.05 0.211626
-1.0006 -0.05 0.211626
-1.0004 -0.05 0.211626
-1.0002 -0.05 0.211626
-1 -0.05 0.211626
-0.8 -0.05 0.211626
-0.6 -0.05 0.211626
-0.4 -0.05 0.211626
-0.2 -0.05 0.211626
0 -0.05 0.211626
0.2 -0.05 0.211626
0.4 -0.05 0.211626
0.6 -0.05 0.211626
0.8 -0.05 0.211626
1 -0.05 0.211626
1.2 -0.05 0.211626
1.4 -0.05 0.211626
1.6 -0.05 0.211626
1.8 -0.05 0.211626
2 -0.05 0.211626
2.2 -0.05 0.211626
2.4 -0.05 0.211626
2.6 -0.05 0.211626
2.8 -0.05 0.211626
3 -0.05 0.211626
3.2 -0.05 0.211626
3.4 -0.05 0.211626
3.6 -0.05 0.211626
3.8 -0.05 0.211626
4 -0.05 0.211626
4.2 -0.05 0.211626
4.4 -0.05 0.211626
4.6 -0.05 0.211626
4.8 -0.05 0.211626
5 -0.05 0.211626
5.2 -0.05 0.211626
5.4 -0.05 0.211626
5.6 -0.05 0.211626
5.8 -0.05 0.211626
6 -0.05 0.211626
6.2 -0.05 0.211626
6.4 -0.05 0.211626
6.6 -0.05 0.211626
6.8 -0.05 0.211626
7 -0.05 0.211626
7.2 -0.05 0.211626
7.4 -0.05 0.211626
7.6 -0.05 0.211626
7.8 -0.05 0.211626
8 -0.05 0.211626
8.2 -0.05 0.211626
8.4 -0.05 0.211626
8.6 -0.05 0.211626
8.8 -0.05 0.211626
9 -0.05 0.211626
9.2 -0.05 0.211626
9.4 -0.05 0.211626
9.6 -0.05 0.211626
9.8 -0.05 0.211626
10 -0.05 0.211626
10.2 -0.05 0.211626
10.4 -0.05 0.211626
10.6 -0.05 0.211626
10.8 -0.05 0.211626
11 -0.05 0.211626
11.2 -0.05 0.211626
11.4 -0.05 0.211626
11.6 -0.05 0.211626
11.8 -0.05 0.211626
12 -0.05 0.211626
12.2 -0.05 0.211626
12.4 -0.05 0.211626
12.6 -0.05 0.211626
12.8 -0.05 0.211626
13 -0.05 0.211626
13.2 -0.05 0.211626
13.4 -0.05 0.211626
13.6 -0.05 0.211626
13.8 -0.05 0.211626
14 -0.05 0.211626
14.2 -0.05 0.211626
14.4 -0.05 0.211626
14.6 -0.05 0.211626
14.8 -0.05 0.211626
15 -0.05 0.211626
-1.001 -0.05 0.264258
-1.0008 -0.05 0.264258
-1.0006 -0.05 0.264258
-1.0004 -0.05 0.264258
-1.0002 -0.05 0.264258
-1 -0.05 0.264258
-0.8 -0.05 0.264258
-0.6 -0.05 0.264258
-0.4 -0.05 0.264258
-0.2 -0.05 0.264258
0 -0.05 0.264258
0.2 -0.05 0.264258
0.4 -0.05 0.264258
0.6 -0.05 0.264258
0.8 -0.05 0.264258
1 -0.05 0.264258
1.2 -0.05 0.264258
1.4 -0.05 0.264258
1.6 -0.05 0.264258
1.8 -0.05 0.264258
2 -0.05 0.264258
2.2 -0.05 0.264258
2.4 -0.05 0.264258
2.6 -0.05 0.264258
2.8 -0.05 0.264258
3 -0.05 0.264258
3.2 -0.05 0.264258
3.4 -0.05 0.264258
3.6 -0.05 0.264258
3.8 -0.05 0.264258
4 -0.05 0.264258
4.2 -0.05 0.264258
4.4 -0.05 0.264258
4.6 -0.05 0.264258
4.8 -0.05 0.264258
5 -0.05 0.264258
5.2 -0.05 0.264258
5.4 -0.05 0.264258
5.6 -0.05 0.264258
5.8 -0.05 0.264258
6 -0.05 0.264258
6.2 -0.05 0.264258
6.4 -0.05 0.264258
6.6 -0.05 0.264258
6.8 -0.05 0.264258
7 -0.05 0.264258
7.2 -0.05 0.264258
7.4 -0.05 0.264258
7.6 -0.05 0.264258
7.8 -0.05 0.264258
8 -0.05 0.264258
8.2 -0.05 0.264258
8.4 -0.05 0.264258
8.6 -0.05 0.264258
8.8 -0.05 0.264258
9 -0.05 0.264258
9.2 -0.05 0.264258
9.4 -0.05 0.264258
9.6 -0.05 0.264258
9.8 -0.05 0.264258
10 -0.05 0.264258
10.2 -0.05 0.264258
10.4 -0.05 0.264258
10.6 -0.05 0.264258
10.8 -0.05 0.264258
11 -0.05 0.264258
11.2 -0.05 0.264258
11.4 -0.05 0.264258
11.6 -0.05 0.264258
11.8 -0.05 0.264258
12 -0.05 0.264258
12.2 -0.05 0.264258
12.4 -0.05 0.264258
12.6 -0.05 0.264258
12.8 -0.05 0.264258
13 -0.05 0.264258
13.2 -0.05 0.264258
13.4 -0.05 0.264258
13.6 -0.05 0.264258
13.8 -0.05 0.264258
14 -0.05 0.264258
14.2 -0.05 0.264258
14.4 -0.05 0.264258
14.6 -0.05 0.264258
14.8 -0.05 0.264258
15 -0.05 0.264258
-1.001 -0.05 0.316889
-1.0008 -0.05 0.316889
-1.0006 -0.05 0.316889
-1.0004 -0.05 0.316889
[...]
POINT_DATA 1720
 FIELD attributes 1
U 3 1720 float
20 	-9.28854e-20 	-1.13704e-18 20 	-2.55901e-19 	-8.53839e-19 20 	-4.18917e-19 	-5.70641e-19 20 	-5.81932e-19 	-2.87443e-19 20 	-7.44948e-19 	-4.24429e-21 20 	-9.07964e-19 	2.78954e-19 20 	-1.21061e-18 	1.60552e-18 20 	-1.21061e-18 	1.60552e-18 20 	-1.21061e-18 	1.60552e-18 20 	-1.21061e-18 	1.60552e-18 20 	-6.06818e-19 	1.09559e-18 20 	9.31349e-19 	1.68872e-18 20 	9.31349e-19 	1.68872e-18 20 	9.31349e-19 	1.68872e-18 20 	9.31349e-19 	1.68872e-18 20 	-1.25263e-19 	1.273e-18 20 	8.94428e-19 	2.92629e-18 20 	8.94428e-19 	2.92629e-18 20 	8.94428e-19 	2.92629e-18 20 	8.94428e-19 	2.92629e-18 20 	2.32797e-19 	1.01012e-18 20 	2.15656e-19 	2.49279e-20 20 	2.15656e-19 	2.49279e-20 20 	2.15656e-19 	2.49279e-20 20 	2.15656e-19 	2.49279e-20 20 	1.86117e-19 	4.43918e-19 20 	1.31701e-18 	9.46707e-19 20 	1.31701e-18 	9.46707e-19 20 	1.31701e-18 	9.46707e-19 20 	1.31701e-18 	9.46707e-19 20 	-1.00033e-19 	7.97161e-20 20 	1.10397e-19 	1.3094e-19 20 	1.10397e-19 	1.3094e-19 20 	1.10397e-19 	1.3094e-19 20 	1.10397e-19 	1.3094e-19 20 	-3.98469e-19 	-3.95653e-19 20 	-9.27957e-19 	-1.1645e-18 20 	-9.27957e-19 	-1.1645e-18 20 	-9.27957e-19 	-1.1645e-18 20 	-9.27957e-19 	-1.1645e-18 20 	-9.36739e-19 	-1.0396e-18 20 	-1.80376e-18 	-3.05422e-18 20 	-1.80376e-18 	-3.05422e-18 20 	-1.80376e-18 	-3.05422e-18 20 	-1.80376e-18 	-3.05422e-18 20 	-1.56807e-18 	-1.39123e-18 20 	-2.86842e-18 	-2.12648e-18 20 	-2.86842e-18 	-2.12648e-18 20 	-2.86842e-18 	-2.12648e-18 20 	-2.86842e-18 	-2.12648e-18 20 	-1.97598e-18 	-1.45761e-18 20 	-3.65033e-18 	-2.80802e-18 20 	-3.65033e-18 	-2.80802e-18 20 	-3.65033e-18 	-2.80802e-18 20 	-3.65033e-18 	-2.80802e-18 20 	-1.9627e-18 	-1.1023e-18 20 	-3.81229e-18 	-9.57492e-19 20 	-3.81229e-18 	-9.57492e-19 20 	-3.81229e-18 	-9.57492e-19 20 	-3.81229e-18 	-9.57492e-19 20 	-1.76095e-18 	-1.24932e-19 20 	-2.18574e-18 	1.14e-18 20 	-2.18574e-18 	1.14e-18 20 	-2.18574e-18 	1.14e-18 20 	-2.18574e-18 	1.14e-18 20 	-1.80469e-18 	-3.30085e-20 20 	-4.22812e-18 	-1.07664e-20 20 	-4.22812e-18 	-1.07664e-20 20 	-4.22812e-18 	-1.07664e-20 20 	-4.22812e-18 	-1.07664e-20 20 	-1.72318e-18 	-5.36892e-19 20 	-2.71582e-18 	-1.54776e-18 20 	-2.71582e-18 	-1.54776e-18 20 	-2.71582e-18 	-1.54776e-18 20 	-2.71582e-18 	-1.54776e-18 20 	-1.55147e-18 	-1.43821e-19 20 	-3.14856e-18 	1.11437e-18 20 	-3.14856e-18 	1.11437e-18 20 	-3.14856e-18 	1.11437e-18 20 	-3.14856e-18 	1.11437e-18 20 	-1.62642e-18 	2.08349e-19 20 	-1.88319e-16 	3.67105e-17 20 	-3.74464e-16 	7.23361e-17 20 	-5.60608e-16 	1.07962e-16 20 	-7.46753e-16 	1.43587e-16 20 	-9.13181e-16 	1.65095e-16
20 	-4.35361e-17 	1.221e-17 20 	-4.36991e-17 	1.24932e-17 20 	-4.38622e-17 	1.27764e-17 20 	-4.40252e-17 	1.30596e-17 20 	-4.41882e-17 	1.33428e-17 20 	-4.43512e-17 	1.3626e-17 20 	-5.70865e-17 	7.66947e-17 20 	-5.70865e-17 	7.66947e-17 20 	-5.70865e-17 	7.66947e-17 20 	-5.70865e-17 	7.66947e-17 20 	-2.96412e-17 	5.35163e-17 20 	4.19091e-17 	8.10784e-17 20 	4.19091e-17 	8.10784e-17 20 	4.19091e-17 	8.10784e-17 20 	4.19091e-17 	8.10784e-17 20 	-6.11872e-18 	6.2182e-17 20 	4.14456e-17 	1.3644e-16 20 	4.14456e-17 	1.3644e-16 20 	4.14456e-17 	1.3644e-16 20 	4.14456e-17 	1.3644e-16 20 	1.13714e-17 	4.93414e-17 20 	1.04339e-17 	2.63901e-18 20 	1.04339e-17 	2.63901e-18 20 	1.04339e-17 	2.63901e-18 20 	1.04339e-17 	2.63901e-18 20 	9.09122e-18 	2.1684e-17 20 	5.95249e-17 	4.33026e-17 20 	5.95249e-17 	4.33026e-17 20 	5.95249e-17 	4.33026e-17 20 	5.95249e-17 	4.33026e-17 20 	-4.88632e-18 	3.89389e-18 20 	3.66629e-18 	4.60963e-18 20 	3.66629e-18 	4.60963e-18 20 	3.66629e-18 	4.60963e-18 20 	3.66629e-18 	4.60963e-18 20 	-1.9464e-17 	-1.93264e-17 20 	-4.53576e-17 	-5.64584e-17 20 	-4.53576e-17 	-5.64584e-17 20 	-4.53576e-17 	-5.64584e-17 20 	-4.53576e-17 	-5.64584e-17 20 	-4.57568e-17 	-5.07811e-17 20 	-8.73087e-17 	-1.43548e-16 20 	-8.73087e-17 	-1.43548e-16 20 	-8.73087e-17 	-1.43548e-16 20 	-8.73087e-17 	-1.43548e-16 20 	-7.65954e-17 	-6.79571e-17 20 	-1.37086e-16 	-1.01603e-16 20 	-1.37086e-16 	-1.01603e-16 20 	-1.37086e-16 	-1.01603e-16 20 	-1.37086e-16 	-1.01603e-16 20 	-9.65206e-17 	-7.11997e-17 20 	-1.72582e-16 	-1.31377e-16 20 	-1.72582e-16 	-1.31377e-16 20 	-1.72582e-16 	-1.31377e-16 20 	-1.72582e-16 	-1.31377e-16 20 	-9.58718e-17 	-5.38439e-17 20 	-1.7926e-16 	-4.39462e-17 20 	-1.7926e-16 	-4.39462e-17 20 	-1.7926e-16 	-4.39462e-17 20 	-1.7926e-16 	-4.39462e-17 20 	-8.60171e-17 	-6.10255e-18 20 	-1.05474e-16 	5.1706e-17 20 	-1.05474e-16 	5.1706e-17 20 	-1.05474e-16 	5.1706e-17 20 	-1.05474e-16 	5.1706e-17 20 	-8.81536e-17 	-1.61236e-18 20 	-1.98033e-16 	-2.3107e-18 20 	-1.98033e-16 	-2.3107e-18 20 	-1.98033e-16 	-2.3107e-18 20 	-1.98033e-16 	-2.3107e-18 20 	-8.41719e-17 	-2.62255e-17 20 	-1.2871e-16 	-7.08408e-17 20 	-1.2871e-16 	-7.08408e-17 20 	-1.2871e-16 	-7.08408e-17 20 	-1.2871e-16 	-7.08408e-17 20 	-7.57847e-17 	-7.02518e-18 20 	-1.48634e-16 	5.13598e-17 20 	-1.48634e-16 	5.13598e-17 20 	-1.48634e-16 	5.13598e-17 20 	-1.48634e-16 	5.13598e-17 20 	-7.94454e-17 	1.01772e-17 20 	-2.87111e-16 	8.43801e-17 20 	-4.73256e-16 	1.20006e-16 20 	-6.594e-16 	1.55631e-16 20 	-8.45545e-16 	1.91257e-16 20 	-9.43276e-16 	1.57155e-16
20 	-8.69794e-17 	2.55571e-17 20 	-8.71424e-17 	2.58403e-17 20 	-8.73054e-17 	2.61235e-17 20 	-8.74684e-17 	2.64067e-17 20 	-8.76314e-17 	2.66899e-17 20 	-8.77945e-17 	2.69731e-17 20 	-8.61208e-17 	1.29115e-16 20 	-8.61208e-17 	1.29115e-16 20 	-8.61208e-17 	1.29115e-16 20 	-8.61208e-17 	1.29115e-16 20 	-5.86755e-17 	1.05937e-16 20 	3.59156e-17 	1.41987e-16 20 	3.59156e-17 	1.41987e-16 20 	3.59156e-17 	1.41987e-16 20 	3.59156e-17 	1.41987e-16 20 	-1.21122e-17 	1.23091e-16 20 	5.25842e-17 	1.84771e-16 20 	5.25842e-17 	1.84771e-16 20 	5.25842e-17 	1.84771e-16 20 	5.25842e-17 	1.84771e-16 20 	2.25101e-17 	9.76727e-17 20 	1.9339e-17 	2.38791e-17 20 	1.9339e-17 	2.38791e-17 20 	1.9339e-17 	2.38791e-17 20 	1.9339e-17 	2.38791e-17 20 	1.79963e-17 	4.29241e-17 20 	5.47386e-17 	4.71167e-17 20 	5.47386e-17 	4.71167e-17 20 	5.47386e-17 	4.71167e-17 20 	5.47386e-17 	4.71167e-17 20 	-9.6726e-18 	7.70806e-18 20 	-1.53992e-17 	-1.43211e-17 20 	-1.53992e-17 	-1.43211e-17 20 	-1.53992e-17 	-1.43211e-17 20 	-1.53992e-17 	-1.43211e-17 20 	-3.85294e-17 	-3.82572e-17 20 	-9.01777e-17 	-1.062e-16 20 	-9.01777e-17 	-1.062e-16 20 	-9.01777e-17 	-1.062e-16 20 	-9.01777e-17 	-1.062e-16 20 	-9.05769e-17 	-1.00523e-16 20 	-1.62336e-16 	-2.10114e-16 20 	-1.62336e-16 	-2.10114e-16 20 	-1.62336e-16 	-2.10114e-16 20 	-1.62336e-16 	-2.10114e-16 20 	-1.51623e-16 	-1.34523e-16 20 	-2.31631e-16 	-1.71345e-16 20 	-2.31631e-16 	-1.71345e-16 20 	-2.31631e-16 	-1.71345e-16 20 	-2.31631e-16 	-1.71345e-16 20 	-1.91065e-16 	-1.40942e-16 20 	-2.66491e-16 	-1.84118e-16 20 	-2.66491e-16 	-1.84118e-16 20 	-2.66491e-16 	-1.84118e-16 20 	-2.66491e-16 	-1.84118e-16 20 	-1.89781e-16 	-1.06586e-16 20 	-2.63516e-16 	-4.99238e-17 20 	-2.63516e-16 	-4.99238e-17 20 	-2.63516e-16 	-4.99238e-17 20 	-2.63516e-16 	-4.99238e-17 20 	-1.70273e-16 	-1.20802e-17 20 	-1.91823e-16 	5.01267e-17 20 	-1.91823e-16 	5.01267e-17 20 	-1.91823e-16 	5.01267e-17 20 	-1.91823e-16 	5.01267e-17 20 	-1.74503e-16 	-3.19172e-18 20 	-2.80482e-16 	-2.79993e-17 20 	-2.80482e-16 	-2.79993e-17 20 	-2.80482e-16 	-2.79993e-17 20 	-2.80482e-16 	-2.79993e-17 20 	-1.66621e-16 	-5.19141e-17 20 	-2.02943e-16 	-7.77222e-17 20 	-2.02943e-16 	-7.77222e-17 20 	-2.02943e-16 	-7.77222e-17 20 	-2.02943e-16 	-7.77222e-17 20 	-1.50018e-16 	-1.39065e-17 20 	-2.26453e-16 	6.13287e-17 20 	-2.26453e-16 	6.13287e-17 20 	-2.26453e-16 	6.13287e-17 20 	-2.26453e-16 	6.13287e-17 20 	-1.57264e-16 	2.0146e-17 20 	-3.17206e-16 	7.64402e-17 20 	-5.0335e-16 	1.12066e-16 20 	-6.89495e-16 	1.47691e-16 20 	-8.7564e-16 	1.83317e-16 20 	-9.73371e-16 	1.49215e-16
20 	-1.30423e-16 	3.89042e-17 20 	-1.30586e-16 	3.91874e-17 20 	-1.30749e-16 	3.94706e-17 20 	-1.30912e-16 	3.97538e-17 20 	-1.31075e-16 	4.0037e-17 20 	-1.31238e-16 	4.03202e-17 20 	-1.15155e-16 	1.81536e-16 20 	-1.15155e-16 	1.81536e-16 20 	-1.15155e-16 	1.81536e-16 20 	-1.15155e-16 	1.81536e-16 20 	-8.77098e-17 	1.58358e-16 20 	2.99222e-17 	2.02896e-16 20 	2.99222e-17 	2.02896e-16 20 	2.99222e-17 	2.02896e-16 20 	2.99222e-17 	2.02896e-16 20 	-1.81056e-17 	1.84e-16 20 	6.37228e-17 	2.33102e-16 20 	6.37228e-17 	2.33102e-16 20 	6.37228e-17 	2.33102e-16 20 	6.37228e-17 	2.33102e-16 20 	3.36487e-17 	1.46004e-16 20 	2.82441e-17 	4.51192e-17 20 	2.82441e-17 	4.51192e-17 20 	2.82441e-17 	4.51192e-17 20 	2.82441e-17 	4.51192e-17 20 	2.69014e-17 	6.41642e-17 20 	4.99523e-17 	5.09309e-17 20 	4.99523e-17 	5.09309e-17 20 	4.99523e-17 	5.09309e-17 20 	4.99523e-17 	5.09309e-17 20 	-1.44589e-17 	1.15222e-17 20 	-3.44647e-17 	-3.32519e-17 20 	-3.44647e-17 	-3.32519e-17 20 	-3.44647e-17 	-3.32519e-17 20 	-3.44647e-17 	-3.32519e-17 20 	-5.75949e-17 	-5.7188e-17 20 	-1.34998e-16 	-1.55941e-16 20 	-1.34998e-16 	-1.55941e-16 20 	-1.34998e-16 	-1.55941e-16 20 	-1.34998e-16 	-1.55941e-16 20 	-1.35397e-16 	-1.50264e-16 20 	-2.37363e-16 	-2.76679e-16 20 	-2.37363e-16 	-2.76679e-16 20 	-2.37363e-16 	-2.76679e-16 20 	-2.37363e-16 	-2.76679e-16 20 	-2.2665e-16 	-2.01089e-16 20 	-3.26175e-16 	-2.41087e-16 20 	-3.26175e-16 	-2.41087e-16 20 	-3.26175e-16 	-2.41087e-16 20 	-3.26175e-16 	-2.41087e-16 20 	-2.8561e-16 	-2.10684e-16 20 	-3.60401e-16 	-2.3686e-16 20 	-3.60401e-16 	-2.3686e-16 20 	-3.60401e-16 	-2.3686e-16 20 	-3.60401e-16 	-2.3686e-16 20 	-2.8369e-16 	-1.59327e-16 20 	-3.47772e-16 	-5.59014e-17 20 	-3.47772e-16 	-5.59014e-17 20 	-3.47772e-16 	-5.59014e-17 20 	-3.47772e-16 	-5.59014e-17 20 	-2.5453e-16 	-1.80578e-17 20 	-2.78172e-16 	4.85473e-17 20 	-2.78172e-16 	4.85473e-17 20 	-2.78172e-16 	4.85473e-17 20 	-2.78172e-16 	4.85473e-17 20 	-2.60852e-16 	-4.77107e-18 20 	-3.6293e-16 	-5.36879e-17 20 	-3.6293e-16 	-5.36879e-17 20 	-3.6293e-16 	-5.36879e-17 20 	-3.6293e-16 	-5.36879e-17 20 	-2.49069e-16 	-7.76027e-17 20 	-2.77176e-16 	-8.46035e-17 20 	-2.77176e-16 	-8.46035e-17 20 	-2.77176e-16 	-8.46035e-17 20 	-2.77176e-16 	-8.46035e-17 20 	-2.24251e-16 	-2.07879e-17 20 	-3.04272e-16 	7.12975e-17 20 	-3.04272e-16 	7.12975e-17 20 	-3.04272e-16 	7.12975e-17 20 	-3.04272e-16 	7.12975e-17 20 	-2.35083e-16 	3.01149e-17 20 	-3.473e-16 	6.85002e-17 20 	-5.33445e-16 	1.04126e-16 20 	-7.19589e-16 	1.39751e-16 20 	-9.05734e-16 	1.75377e-16 20 	-1.00347e-15 	1.41275e-16
20 	-1.73866e-16 	5.22513e-17 20 	-1.74029e-16 	5.25345e-17 20 	-1.74192e-16 	5.28177e-17 20 	-1.74355e-16 	5.31009e-17 20 	-1.74518e-16 	5.33841e-17 20 	-1.74681e-16 	5.36673e-17 20 	-1.47372e-16 	2.25325e-16 20 	-1.44189e-16 	2.33957e-16 20 	-1.44189e-16 	2.33957e-16 20 	-1.44189e-16 	2.33957e-16 20 	-1.16744e-16 	2.10778e-16 20 	1.8839e-17 	2.6193e-16 20 	2.39287e-17 	2.63805e-16 20 	2.39287e-17 	2.63805e-16 20 	2.39287e-17 	2.63805e-16 20 	-2.40991e-17 	2.44909e-16 20 	7.1077e-17 	2.84212e-16 20 	7.48615e-17 	2.81434e-16 20 	7.48615e-17 	2.81434e-16 20 	7.48615e-17 	2.81434e-16 20 	4.47873e-17 	1.94335e-16 20 	3.76426e-17 	7.23437e-17 20 	3.71492e-17 	6.63593e-17 20 	3.71492e-17 	6.63593e-17 20 	3.71492e-17 	6.63593e-17 20 	3.58065e-17 	8.54043e-17 20 	4.81904e-17 	5.85945e-17 20 	4.5166e-17 	5.47451e-17 20 	4.5166e-17 	5.47451e-17 20 	4.5166e-17 	5.47451e-17 20 	-1.92452e-17 	1.53364e-17 20 	-5.03759e-17 	-4.71583e-17 20 	-5.35302e-17 	-5.21827e-17 20 	-5.35302e-17 	-5.21827e-17 20 	-5.35302e-17 	-5.21827e-17 20 	-7.66604e-17 	-7.61188e-17 20 	-1.74129e-16 	-1.98877e-16 20 	-1.79818e-16 	-2.05683e-16 20 	-1.79818e-16 	-2.05683e-16 20 	-1.79818e-16 	-2.05683e-16 20 	-1.80217e-16 	-2.00005e-16 20 	-3.05718e-16 	-3.39529e-16 20 	-3.12391e-16 	-3.43245e-16 20 	-3.12391e-16 	-3.43245e-16 20 	-3.12391e-16 	-3.43245e-16 20 	-3.01677e-16 	-2.67655e-16 20 	-4.16408e-16 	-3.10128e-16 20 	-4.2072e-16 	-3.10829e-16 20 	-4.2072e-16 	-3.10829e-16 20 	-4.2072e-16 	-3.10829e-16 20 	-3.80154e-16 	-2.80426e-16 20 	-4.5445e-16 	-2.93357e-16 20 	-4.5431e-16 	-2.89601e-16 20 	-4.5431e-16 	-2.89601e-16 20 	-4.5431e-16 	-2.89601e-16 20 	-3.77599e-16 	-2.12069e-16 20 	-4.34161e-16 	-7.22092e-17 20 	-4.32028e-16 	-6.1879e-17 20 	-4.32028e-16 	-6.1879e-17 20 	-4.32028e-16 	-6.1879e-17 20 	-3.38786e-16 	-2.40354e-17 20 	-3.64058e-16 	4.59964e-17 20 	-3.64521e-16 	4.69679e-17 20 	-3.64521e-16 	4.69679e-17 20 	-3.64521e-16 	4.69679e-17 20 	-3.47201e-16 	-6.35043e-18 20 	-4.46241e-16 	-7.40508e-17 20 	-4.45379e-16 	-7.93765e-17 20 	-4.45379e-16 	-7.93765e-17 20 	-4.45379e-16 	-7.93765e-17 20 	-3.31518e-16 	-1.03291e-16 20 	-3.53224e-16 	-9.56394e-17 20 	-3.51409e-16 	-9.14849e-17 20 	-3.51409e-16 	-9.14849e-17 20 	-3.51409e-16 	-9.14849e-17 20 	-2.98484e-16 	-2.76693e-17 20 	-3.81299e-16 	7.75441e-17 20 	-3.82091e-16 	8.12664e-17 20 	-3.82091e-16 	8.12664e-17 20 	-3.82091e-16 	8.12664e-17 20 	-3.12902e-16 	4.00837e-17 20 	-3.87937e-16 	6.45162e-17 20 	-5.63539e-16 	9.61857e-17 20 	-7.49684e-16 	1.31811e-16 20 	-9.35829e-16 	1.67437e-16 20 	-1.03356e-15 	1.33335e-16
20 	-2.17309e-16 	6.55984e-17 20 	-2.17472e-16 	6.58816e-17 20 	-2.17635e-16 	6.61648e-17 20 	-2.17798e-16 	6.6448e-17 20 	-2.17961e-16 	6.67312e-17 20 	-2.18124e-16 	6.70144e-17 20 	-1.90816e-16 	2.38673e-16 20 	-1.73224e-16 	2.86378e-16 20 	-1.73224e-16 	2.86378e-16 20 	-1.73224e-16 	2.86378e-16 20 	-1.45778e-16 	2.63199e-16 20 	-1.01953e-17 	3.14351e-16 20 	1.79353e-17 	3.24714e-16 20 	1.79353e-17 	3.24714e-16 20 	1.79353e-17 	3.24714e-16 20 	-3.00926e-17 	3.05818e-16 20 	6.50835e-17 	3.45121e-16 20 	8.60001e-17 	3.29765e-16 20 	8.60001e-17 	3.29765e-16 20 	8.60001e-17 	3.29765e-16 20 	5.5926e-17 	2.42666e-16 20 	4.87813e-17 	1.20675e-16 20 	4.60543e-17 	8.75994e-17 20 	4.60543e-17 	8.75994e-17 20 	4.60543e-17 	8.75994e-17 20 	4.47116e-17 	1.06644e-16 20 	5.70955e-17 	7.98345e-17 20 	4.03797e-17 	5.85592e-17 20 	4.03797e-17 	5.85592e-17 20 	4.03797e-17 	5.85592e-17 20 	-2.40314e-17 	1.91506e-17 20 	-5.51622e-17 	-4.33442e-17 20 	-7.25957e-17 	-7.11135e-17 20 	-7.25957e-17 	-7.11135e-17 20 	-7.25957e-17 	-7.11135e-17 20 	-9.57259e-17 	-9.50495e-17 20 	-1.93194e-16 	-2.17807e-16 20 	-2.24638e-16 	-2.55424e-16 20 	-2.24638e-16 	-2.55424e-16 20 	-2.24638e-16 	-2.55424e-16 20 	-2.25037e-16 	-2.49747e-16 20 	-3.50538e-16 	-3.8927e-16 20 	-3.87418e-16 	-4.09811e-16 20 	-3.87418e-16 	-4.09811e-16 20 	-3.87418e-16 	-4.09811e-16 20 	-3.76705e-16 	-3.34221e-16 20 	-4.91436e-16 	-3.76693e-16 20 	-5.15264e-16 	-3.80571e-16 20 	-5.15264e-16 	-3.80571e-16 20 	-5.15264e-16 	-3.80571e-16 20 	-4.74699e-16 	-3.50168e-16 20 	-5.48995e-16 	-3.63099e-16 20 	-5.48219e-16 	-3.42343e-16 20 	-5.48219e-16 	-3.42343e-16 20 	-5.48219e-16 	-3.42343e-16 20 	-4.71508e-16 	-2.6481e-16 20 	-5.2807e-16 	-1.24951e-16 20 	-5.16285e-16 	-6.78566e-17 20 	-5.16285e-16 	-6.78566e-17 20 	-5.16285e-16 	-6.78566e-17 20 	-4.23042e-16 	-3.0013e-17 20 	-4.48315e-16 	4.00188e-17 20 	-4.5087e-16 	4.53886e-17 20 	-4.5087e-16 	4.53886e-17 20 	-4.5087e-16 	4.53886e-17 20 	-4.33549e-16 	-7.92978e-18 20 	-5.3259e-16 	-7.56302e-17 20 	-5.27828e-16 	-1.05065e-16 20 	-5.27828e-16 	-1.05065e-16 20 	-5.27828e-16 	-1.05065e-16 20 	-4.13967e-16 	-1.2898e-16 20 	-4.35673e-16 	-1.21328e-16 20 	-4.25642e-16 	-9.83663e-17 20 	-4.25642e-16 	-9.83663e-17 20 	-4.25642e-16 	-9.83663e-17 20 	-3.72717e-16 	-3.45506e-17 20 	-4.55532e-16 	7.06628e-17 20 	-4.5991e-16 	9.12352e-17 20 	-4.5991e-16 	9.12352e-17 20 	-4.5991e-16 	9.12352e-17 20 	-3.90721e-16 	5.00526e-17 20 	-4.65756e-16 	7.44851e-17 20 	-5.93634e-16 	8.82457e-17 20 	-7.79779e-16 	1.23871e-16 20 	-9.65923e-16 	1.59497e-16 20 	-1.06365e-15 	1.25395e-16
20 	-2.60752e-16 	7.89455e-17 20 	-2.60915e-16 	7.92287e-17 20 	-2.61078e-16 	7.95119e-17 20 	-2.61241e-16 	7.97951e-17 20 	-2.61404e-16 	8.00783e-17 20 	-2.61567e-16 	8.03615e-17 20 	-2.34259e-16 	2.5202e-16 20 	-2.02258e-16 	3.38798e-16 20 	-2.02258e-16 	3.38798e-16 20 	-2.02258e-16 	3.38798e-16 20 	-1.74813e-16 	3.1562e-16 20 	-3.92297e-17 	3.66772e-16 20 	1.19418e-17 	3.85623e-16 20 	1.19418e-17 	3.85623e-16 20 	1.19418e-17 	3.85623e-16 20 	-3.6086e-17 	3.66727e-16 20 	5.90901e-17 	4.0603e-16 20 	9.71387e-17 	3.78096e-16 20 	9.71387e-17 	3.78096e-16 20 	9.71387e-17 	3.78096e-16 20 	6.70646e-17 	2.90998e-16 20 	5.99199e-17 	1.69006e-16 20 	5.49594e-17 	1.08839e-16 20 	5.49594e-17 	1.08839e-16 20 	5.49594e-17 	1.08839e-16 20 	5.36167e-17 	1.27884e-16 20 	6.60007e-17 	1.01075e-16 20 	3.55935e-17 	6.23734e-17 20 	3.55935e-17 	6.23734e-17 20 	3.55935e-17 	6.23734e-17 20 	-2.88177e-17 	2.29647e-17 20 	-5.99485e-17 	-3.953e-17 20 	-9.16612e-17 	-9.00442e-17 20 	-9.16612e-17 	-9.00442e-17 20 	-9.16612e-17 	-9.00442e-17 20 	-1.14791e-16 	-1.1398e-16 20 	-2.1226e-16 	-2.36738e-16 20 	-2.69458e-16 	-3.05166e-16 20 	-2.69458e-16 	-3.05166e-16 20 	-2.69458e-16 	-3.05166e-16 20 	-2.69857e-16 	-2.99488e-16 20 	-3.95358e-16 	-4.39012e-16 20 	-4.62445e-16 	-4.76377e-16 20 	-4.62445e-16 	-4.76377e-16 20 	-4.62445e-16 	-4.76377e-16 20 	-4.51732e-16 	-4.00786e-16 20 	-5.66463e-16 	-4.43259e-16 20 	-6.09809e-16 	-4.50313e-16 20 	-6.09809e-16 	-4.50313e-16 20 	-6.09809e-16 	-4.50313e-16 20 	-5.69243e-16 	-4.1991e-16 20 	-6.43539e-16 	-4.32841e-16 20 	-6.42128e-16 	-3.95085e-16 20 	-6.42128e-16 	-3.95085e-16 20 	-6.42128e-16 	-3.95085e-16 20 	-5.65418e-16 	-3.17552e-16 20 	-6.21979e-16 	-1.77692e-16 20 	-6.00541e-16 	-7.38342e-17 20 	-6.00541e-16 	-7.38342e-17 20 	-6.00541e-16 	-7.38342e-17 20 	-5.07298e-16 	-3.59906e-17 20 	-5.32571e-16 	3.40411e-17 20 	-5.37219e-16 	4.38092e-17 20 	-5.37219e-16 	4.38092e-17 20 	-5.37219e-16 	4.38092e-17 20 	-5.19898e-16 	-9.50913e-18 20 	-6.18939e-16 	-7.72095e-17 20 	-6.10277e-16 	-1.30754e-16 20 	-6.10277e-16 	-1.30754e-16 20 	-6.10277e-16 	-1.30754e-16 20 	-4.96416e-16 	-1.54669e-16 20 	-5.18121e-16 	-1.47017e-16 20 	-4.99876e-16 	-1.05248e-16 20 	-4.99876e-16 	-1.05248e-16 20 	-4.99876e-16 	-1.05248e-16 20 	-4.46951e-16 	-4.1432e-17 20 	-5.29765e-16 	6.37814e-17 20 	-5.37729e-16 	1.01204e-16 20 	-5.37729e-16 	1.01204e-16 20 	-5.37729e-16 	1.01204e-16 20 	-4.6854e-16 	6.00214e-17 20 	-5.43575e-16 	8.44539e-17 20 	-6.23729e-16 	8.03057e-17 20 	-8.09873e-16 	1.15931e-16 20 	-9.96018e-16 	1.51557e-16 20 	-1.09375e-15 	1.17455e-16