# vtk DataFile Version 2.0
track0
ASCII
DATASET POLYDATA
POINTS 1720 float
-1.001 -0.05 0.0011
-1.0008 -0.05 0.0011
-1.0006 -0.05 0.0011
-1.0004 -0.05 0.0011
-1.0002 -0.05 0.0011
-1 -0.05 0.0011
-0.8 -0.05 0.0011
-0.6 -0.05 0.0011
-0.4 -0.05 0.0011
-0.2 -0.05 0.0011
0 -0.05 0.0011
0.2 -0.05 0.0011
0.4 -0.05 0.0011
0.6 -0.05 0.0011
0.8 -0.05 0.0011
1 -0.05 0.0011
1.2 -0.05 0.0011
1.4 -0.05 0.0011
1.6 -0.05 0.0011
1.8 -0.05 0.0011
2 -0.05 0.0011
2.2 -0.05 0.0011
2.4 -0.05 0.0011
2.6 -0.05 0.0011
2.8 -0.05 0.0011
3 -0.05 0.0011
3.2 -0.05 0.0011
3.4 -0.05 0.0011
3.6 -0.05 0.0011
3.8 -0.05 0.0011
4 -0.05 0.0011
4.2 -0.05 0.0011
4.4 -0.05 0.0011
4.6 -0.05 0.0011
4.8 -0.05 0.0011
5 -0.05 0.0011
5.2 -0.05 0.0011
5.4 -0.05 0.0011
5.6 -0.05 0.0011
5.8 -0.05 0.0011
6 -0.05 0.0011
6.2 -0.05 0.0011
6.4 -0.05 0.0011
6.6 -0.05 0.0011
6.8 -0.05 0.0011
7 -0.05 0.0011
7.2 -0.05 0.0011
7.4 -0.05 0.0011
7.6 -0.05 0.0011
7.8 -0.05 0.0011
8 -0.05 0.0011
8.2 -0.05 0.0011
8.4 -0.05 0.0011
8.6 -0.05 0.0011
8.8 -0.05 0.0011
9 -0.05 0.0011
9.2 -0.05 0.0011
9.4 -0.05 0.0011
9.6 -0.05 0.0011
9.8 -0.05 0.0011
10 -0.05 0.0011
10.2 -0.05 0.0011
10.4 -0.05 0.0011
10.6 -0.05 0.0011
10.8 -0.05 0.0011
11 -0.05 0.0011
11.2 -0.05 0.0011
11.4 -0.05 0.0011
11.6 -0.05 0.0011
11.8 -0.05 0.0011
12 -0.05 0.0011
12.2 -0.05 0.0011
12.4 -0.05 0.0011
12.6 -0.05 0.0011
12.8 -0.05 0.0011
13 -0.05 0.0011
13.2 -0.05 0.0011
13.4 -0.05 0.0011
13.6 -0.05 0.0011
13.8 -0.05 0.0011
14 -0.05 0.0011
14.2 -0.05 0.0011
14.4 -0.05 0.0011
14.6 -0.05 0.0011
14.8 -0.05 0.0011
15 -0.05 0.0011
-1.001 -0.05 0.0537316
-1.0008 -0.05 0.0537316
-1.0006 -0.05 0.0537316
-1.0004 -0.05 0.0537316
-1.0002 -0.05 0.0537316
-1 -0.05 0.0537316
-0.8 -0.05 0.0537316
-0.6 -0.05 0.0537316
-0.4 -0.05 0.0537316
-0.2 -0.05 0.0537316
0 -0.05 0.0537316
0.2 -0.05 0.0537316
0.4 -0.05 0.0537316
0.6 -0.05 0.0537316
0.8 -0.05 0.0537316
1 -0.05 0.0537316
1.2 -0.05 0.0537316
1.4 -0.05 0.0537316
1.6 -0.05 0.0537316
1.8 -0.05 0.0537316
2 -0.05 0.0537316
2.2 -0.05 0.0537316
2.4 -0.05 0.0537316
2.6 -0.05 0.0537316
2.8 -0.05 0.0537316
3 -0.05 0.0537316
3.2 -0.05 0.0537316
3.4 -0.05 0.0537316
3.6 -0.05 0.0537316
3.8 -0.05 0.0537316
4 -0.05 0.0537316
4.2 -0.05 0.0537316
4.4 -0.05 0.0537316
4.6 -0.05 0.0537316
4.8 -0.05 0.0537316
5 -0.05 0.0537316
5.2 -0.05 0.0537316
5.4 -0.05 0.0537316
5.6 -0.05 0.0537316
5.8 -0.05 0.0537316
6 -0.05 0.0537316
6.2 -0.05 0.0537316
6.4 -0.05 0.0537316
6.6 -0.05 0.0537316
6.8 -0.05 0.0537316
7 -0.05 0.0537316
7.2 -0.05 0.0537316
7.4 -0.05 0.0537316
7.6 -0.05 0.0537316
7.8 -0.05 0.0537316
8 -0.05 0.0537316
8.2 -0.05 0.0537316
8.4 -0.05 0.0537316
8.6 -0.05 0.0537316
8.8 -0.05 0.0537316
9 -0.05 0.0537316
9.2 -0.05 0.0537316
9.4 -0.05 0.0537316
9.6 -0.05 0.0537316
9.8 -0.05 0.0537316
10 -0.05 0.0537316
10.2 -0.05 0.0537316
10.4 -0.05 0.0537316
10.6 -0.05 0.0537316
10.8 -0.05 0.0537316
11 -0.05 0.0537316
11.2 -0.05 0.0537316
11.4 -0.05 0.0537316
11.6 -0.05 0.0537316
11.8 -0.05 0.0537316
12 -0.05 0.0537316
12.2 -0.05 0.0537316
12.4 -0.05 0.0537316
12.6 -0.05 0.0537316
12.8 -0.05 0.0537316
13 -0.05 0.0537316
13.2 -0.05 0.0537316
13.4 -0.05 0.0537316
13.6 -0.05 0.0537316
13.8 -0.05 0.0537316
14 -0.05 0.0537316
14.2 -0.05 0.0537316
14.4 -0.05 0.0537316
14.6 -0.05 0.0537316
14.8 -0.05 0.0537316
15 -0.05 0.0537316
-1.001 -0.05 0.106363
-1.0008 -0.05 0.106363
-1.0006 -0.05 0.106363
-1.0004 -0.05 0.106363
-1.0002 -0.05 0.106363
-1 -0.05 0.106363
-0.8 -0.05 0.106363
-0.6 -0.05 0.106363
-0.4 -0.05 0.106363
-0.2 -0.05 0.106363
0 -0.05 0.106363
0.2 -0.05 0.106363
0.4 -0.05 0.106363
0.6 -0.05 0.106363
0.8 -0.05 0.106363
1 -0.05 0.106363
1.2 -0.05 0.106363
1.4 -0.05 0.106363
1.6 -0.05 0.106363
1.8 -0.05 0.106363
2 -0.05 0.106363
2.2 -0.05 0.106363
2.4 -0.05 0.106363
2.6 -0.05 0.106363
2.8 -0.05 0.106363
3 -0.05 0.106363
3.2 -0.05 0.106363
3.4 -0.05 0.106363
3.6 -0.05 0.106363
3.8 -0.05 0.106363
4 -0.05 0.106363
4.2 -0.05 0.106363
4.4 -0.05 0.106363
4.6 -0.05 0.106363
4.8 -0.05 0.106363
5 -0.05 0.106363
5.2 -0.05 0.106363
5.4 -0.05 0.106363
5.6 -0.05 0.106363
5.8 -0.05 0.106363
6 -0.05 0.106363
6.2 -0.05 0.106363
6.4 -0.05 0.106363
6.6 -0.05 0.106363
6.8 -0.05 0.106363
7 -0.05 0.106363
7.2 -0.05 0.106363
7.4 -0.05 0.106363
7.6 -0.05 0.106363
7.8 -0.05 0.106363
8 -0.05 0.106363
8.2 -0.05 0.106363
8.4 -0.05 0.106363
8.6 -0.05 0.106363
8.8 -0.05 0.106363
9 -0.05 0.106363
9.2 -0.05 0.106363
9.4 -0.05 0.106363
9.6 -0.05 0.106363
9.8 -0.05 0.106363
10 -0.05 0.106363
10.2 -0.05 0.106363
10.4 -0.05 0.106363
10.6 -0.05 0.106363
10.8 -0.05 0.106363
11 -0.05 0.106363
11.2 -0.05 0.106363
11.4 -0.05 0.106363
11.6 -0.05 0.106363
11.8 -0.05 0.106363
12 -0.05 0.106363
12.2 -0.05 0.106363
12.4 -0.05 0.106363
12.6 -0.05 0.106363
12.8 -0.05 0.106363
13 -0.05 0.106363
13.2 -0.05 0.106363
13.4 -0.05 0.106363
13.6 -0.05 0.106363
13.8 -0.05 0.106363
14 -0.05 0.106363
14.2 -0.05 0.106363
14.4 -0.05 0.106363
14.6 -0.05 0.106363
14.8 -0.05 0.106363
15 -0.05 0.106363
-1.001 -0.05 0.158995
-1.0008 -0.05 0.158995
-1.0006 -0.05 0.158995
-1.0004 -0.05 0.158995
-1.0002 -0.05 0.158995
-1 -0.05 0.158995
-0.8 -0.05 0.158995
-0.6 -0.05 0.158995
-0.4 -0.05 0.158995
-0.2 -0.05 0.158995
0 -0.05 0.158995
0.2 -0.05 0.158995
0.4 -0.05 0.158995
0.6 -0.05 0.158995
0.8 -0.05 0.158995
1 -0.05 0.158995
1.2 -0.05 0.158995
1.4 -0.05 0.158995
1.6 -0.05 0.158995
1.8 -0.05 0.158995
2 -0.05 0.158995
2.2 -0.05 0.158995
2.4 -0.05 0.158995
2.6 -0.05 0.158995
2.8 -0.05 0.158995
3 -0.05 0.158995
3.2 -0.05 0.158995
3.4 -0.05 0.158995
3.6 -0.05 0.158995
3.8 -0.05 0.158995
4 -0.05 0.158995
4.2 -0.05 0.158995
4.4 -0.05 0.158995
4.6 -0.05 0.158995
4.8 -0.05 0.158995
5 -0.05 0.158995
5.2 -0.05 0.158995
5.4 -0.05 0.158995
5.6 -0.05 0.158995
5.8 -0.05 0.158995
6 -0.05 0.158995
6.2 -0.05 0.158995
6.4 -0.05 0.158995
6.6 -0.05 0.158995
6.8 -0.05 0.158995
7 -0.05 0.158995
7.2 -0.05 0.158995
7.4 -0.05 0.158995
7.6 -0.05 0.158995
7.8 -0.05 0.158995
8 -0.05 0.158995
8.2 -0.05 0.158995
8.4 -0.05 0.158995
8.6 -0.05 0.158995
8.8 -0.05 0.158995
9 -0.05 0.158995
9.2 -0.05 0.158995
9.4 -0.05 0.158995
9.6 -0.05 0.158995
9.8 -0.05 0.158995
10 -0.05 0.158995
10.2 -0.05 0.158995
10.4 -0.05 0.158995
10.6 -0.05 0.158995
10.8 -0.05 0.158995
11 -0.05 0.158995
11.2 -0.05 0.158995
11.4 -0.05 0.158995
11.6 -0.05 0.158995
11.8 -0.05 0.158995
12 -0.05 0.158995
12.2 -0.05 0.158995
12.4 -0.05 0.158995
12.6 -0.05 0.158995
12.8 -0.05 0.158995
13 -0.05 0.158995
13.2 -0.05 0.158995
13.4 -0.05 0.158995
13.6 -0.05 0.158995
13.8 -0.05 0.158995
14 -0.05 0.158995
14.2 -0.05 0.158995
14.4 -0.05 0.158995
14.6 -0.05 0.158995
14.8 -0.05 0.158995
15 -0.05 0.158995
-1.001 -0.05 0.211626
-1.0008 -0.05 0.211626
-1.0006 -0.05 0.211626
-1.0004 -0.05 0.211626
-1.0002 -0.05 0.211626
-1 -0.05 0.211626
-0.8 -0.05 0.211626
-0.6 -0.05 0.211626
-0.4 -0.05 0.211626
-0.2 -0.05 0.211626
0 -0.05 0.211626
0.2 -0.05 0.211626
0.4 -0.05 0.211626
0.6 -0.05 0.211626
0.8 -0.05 0.211626
1 -0.05 0.211626
1.2 -0.05 0.211626
1.4 -0.05 0.211626
1.6 -0.05 0.211626
1.8 -0.05 0.211626
2 -0.05 0.211626
2.2 -0.05 0.211626
2.4 -0.05 0.211626
2.6 -0.05 0.211626
2.8 -0.05 0.211626
3 -0.05 0.211626
3.2 -0.05 0.211626
3.4 -0.05 0.211626
3.6 -0.05 0.211626
3.8 -0.05 0.211626
4 -0.05 0.211626
4.2 -0.05 0.211626
4.4 -0.05 0.211626
4.6 -0.05 0.211626
4.8 -0.05 0.211626
5 -0.05 0.211626
5.2 -0.05 0.211626
5.4 -0.05 0.211626
5.6 -0.05 0.211626
5.8 -0.05 0.211626
6 -0.05 0.211626
6.2 -0.05 0.211626
6.4 -0.05 0.211626
6.6 -0.05 0.211626
6.8 -0.05 0.211626
7 -0.05 0.211626
7.2 -0.05 0.211626
7.4 -0.05 0.211626
7.6 -0.05 0.211626
7.8 -0.05 0.211626
8 -0.05 0.211626
8.2 -0.05 0.211626
8.4 -0.05 0.211626
8.6 -0.05 0.211626
8.8 -0.05 0.211626
9 -0.05 0.211626
9.2 -0.05 0.211626
9.4 -0.05 0.211626
9.6 -0.05 0.211626
9.8 -0.05 0.211626
10 -0.05 0.211626
10.2 -0.05 0.211626
10.4 -0.05 0.211626
10.6 -0.05 0.211626
10.8 -0.05 0.211626
11 -0.05 0.211626
11.2 -0.05 0.211626
11.4 -0.05 0.211626
11.6 -0.05 0.211626
11.8 -0.05 0.211626
12 -0.05 0.211626
12.2 -0.05 0.211626
12.4 -0.05 0.211626
12.6 -0.05 0.211626
12.8 -0.05 0.211626
13 -0.05 0.211626
13.2 -0.05 0.211626
13.4 -0.05 0.211626
13.6 -0.05 0.211626
13.8 -0.05 0.211626
14 -0.05 0.211626
14.2 -0.05 0.211626
14.4 -0.05 0.211626
14.6 -0.05 0.211626
14.8 -0.05 0.211626
15 -0.05 0.211626
-1.001 -0.05 0.264258
-1.0008 -0.05 0.264258
-1.0006 -0.05 0.264258
-1.0004 -0.05 0.264258
-1.0002 -0.05 0.264258
-1 -0.05 0.264258
-0.8 -0.05 0.264258
-0.6 -0.05 0.264258
-0.4 -0.05 0.264258
-0.2 -0.05 0.264258
0 -0.05 0.264258
0.2 -0.05 0.264258
0.4 -0.05 0.264258
0.6 -0.05 0.264258
0.8 -0.05 0.264258
1 -0.05 0.264258
1.2 -0.05 0.264258
1.4 -0.05 0.264258
1.6 -0.05 0.264258
1.8 -0.05 0.264258
2 -0.05 0.264258
2.2 -0.05 0.264258
2.4 -0.05 0.264258
2.6 -0.05 0.264258
2.8 -0.05 0.264258
3 -0.05 0.264258
3.2 -0.05 0.264258
3.4 -0.05 0.264258
3.6 -0.05 0.264258
3.8 -0.05 0.264258
4 -0.05 0.264258
4.2 -0.05 0.264258
4.4 -0.05 0.264258
4.6 -0.05 0.264258
4.8 -0.05 0.264258
5 -0.05 0.264258
5.2 -0.05 0.264258
5.4 -0.05 0.264258
5.6 -0.05 0.264258
5.8 -0.05 0.264258
6 -0.05 0.264258
6.2 -0.05 0.264258
6.4 -0.05 0.264258
6.6 -0.05 0.264258
6.8 -0.05 0.264258
7 -0.05 0.264258
7.2 -0.05 0.264258
7.4 -0.05 0.264258
7.6 -0.05 0.264258
7.8 -0.05 0.264258
8 -0.05 0.264258
8.2 -0.05 0.264258
8.4 -0.05 0.264258
8.6 -0.05 0.264258
8.8 -0.05 0.264258
9 -0.05 0.264258
9.2 -0.05 0.264258
9.4 -0.05 0.264258
9.6 -0.05 0.264258
9.8 -0.05 0.264258
10 -0.05 0.264258
10.2 -0.05 0.264258
10.4 -0.05 0.264258
10.6 -0.05 0.264258
10.8 -0.05 0.264258
11 -0.05 0.264258
11.2 -0.05 0.264258
11.4 -0.05 0.264258
11.6 -0.05 0.264258
11.8 -0.05 0.264258
12 -0.05 0.264258
12.2 -0.05 0.264258
12.4 -0.05 0.264258
12.6 -0.05 0.264258
12.8 -0.05 0.264258
13 -0.05 0.264258
13.2 -0.05 0.264258
13.4 -0.05 0.264258
13.6 -0.05 0.264258
13.8 -0.05 0.264258
14 -0.05 0.264258
14.2 -0.05 0.264258
14.4 -0.05 0.264258
14.6 -0.05 0.264258
14.8 -0.05 0.264258
15 -0.05 0.264258
-1.001 -0.05 0.316889
-1.0008 -0.05 0.316889
-1.0006 -0.05 0.316889
-1.0004 -0.05 0.316889
[...]
POINT_DATA 1720
 FIELD attributes 2
p 1 1720 float
-1.43349e-13 -1.43344e-13 -1.43339e-13 -1.43333e-13 -1.43328e-13 -1.43323e-13 -1.41976e-13 -1.40661e-13 -1.39346e-13 -1.38031e-13 -1.36564e-13 -1.41584e-13 -1.4662e-13 -1.51655e-13 -1.56691e-13 -1.61723e-13 -1.64131e-13 -1.6652e-13 -1.68909e-13 -1.71298e-13 -1.74009e-13 -1.69345e-13 -1.64648e-13 -1.5995e-13 -1.55252e-13 -1.50805e-13 -1.43968e-13 -1.37134e-13 -1.303e-13 -1.23465e-13 -1.16609e-13 -1.14808e-13 -1.13028e-13 -1.11249e-13 -1.09469e-13 -1.07706e-13 -1.10321e-13 -1.12932e-13 -1.15543e-13 -1.18154e-13 -1.20448e-13 -1.1754e-13 -1.14595e-13 -1.1165e-13 -1.08705e-13 -1.05565e-13 -9.95263e-14 -9.35099e-14 -8.74934e-14 -8.1477e-14 -7.55436e-14 -7.62782e-14 -7.704e-14 -7.78019e-14 -7.85638e-14 -7.90271e-14 -8.01004e-14 -8.11428e-14 -8.21853e-14 -8.32277e-14 -8.40773e-14 -7.87608e-14 -7.34072e-14 -6.80536e-14 -6.26999e-14 -5.78681e-14 -4.98421e-14 -4.18018e-14 -3.37614e-14 -2.5721e-14 -1.81622e-14 -1.35925e-14 -9.05683e-15 -4.52114e-15 1.45591e-17 4.69151e-15 4.4608e-15 4.19004e-15 3.91927e-15 3.6485e-15 3.54954e-15 2.74158e-15 1.91529e-15 1.089e-15 2.62707e-16 -4.84791e-16
-1.43527e-13 -1.43522e-13 -1.43516e-13 -1.43511e-13 -1.43506e-13 -1.435e-13 -1.40718e-13 -1.39404e-13 -1.38089e-13 -1.36774e-13 -1.36707e-13 -1.40985e-13 -1.46021e-13 -1.51057e-13 -1.56093e-13 -1.614e-13 -1.64665e-13 -1.67054e-13 -1.69442e-13 -1.71831e-13 -1.73539e-13 -1.70414e-13 -1.65716e-13 -1.61018e-13 -1.5632e-13 -1.50612e-13 -1.43642e-13 -1.36808e-13 -1.29974e-13 -1.23139e-13 -1.16451e-13 -1.13692e-13 -1.11913e-13 -1.10133e-13 -1.08354e-13 -1.07572e-13 -1.10356e-13 -1.12967e-13 -1.15578e-13 -1.18189e-13 -1.20487e-13 -1.19282e-13 -1.16336e-13 -1.13391e-13 -1.10446e-13 -1.05818e-13 -9.88064e-14 -9.279e-14 -8.67735e-14 -8.07571e-14 -7.59893e-14 -7.54805e-14 -7.62424e-14 -7.70043e-14 -7.77661e-14 -7.9054e-14 -8.14666e-14 -8.2509e-14 -8.35515e-14 -8.45939e-14 -8.3664e-14 -8.00234e-14 -7.46697e-14 -6.93161e-14 -6.39625e-14 -5.77642e-14 -5.04031e-14 -4.23627e-14 -3.43223e-14 -2.62819e-14 -1.84148e-14 -1.23532e-14 -7.81746e-15 -3.28176e-15 1.25394e-15 4.21285e-15 5.77544e-15 5.50467e-15 5.2339e-15 4.96314e-15 3.24795e-15 3.2779e-15 2.45161e-15 1.62532e-15 7.9903e-16 -4.61964e-16
-1.43705e-13 -1.43699e-13 -1.43694e-13 -1.43689e-13 -1.43683e-13 -1.43678e-13 -1.40862e-13 -1.39547e-13 -1.38232e-13 -1.36917e-13 -1.36851e-13 -1.40662e-13 -1.45698e-13 -1.50734e-13 -1.5577e-13 -1.61077e-13 -1.64195e-13 -1.66584e-13 -1.68973e-13 -1.71362e-13 -1.73069e-13 -1.70221e-13 -1.65523e-13 -1.60825e-13 -1.56127e-13 -1.50419e-13 -1.43484e-13 -1.3665e-13 -1.29816e-13 -1.22982e-13 -1.16293e-13 -1.13559e-13 -1.11779e-13 -1.1e-13 -1.0822e-13 -1.07439e-13 -1.10395e-13 -1.13006e-13 -1.15617e-13 -1.18228e-13 -1.20526e-13 -1.19535e-13 -1.16589e-13 -1.13644e-13 -1.10699e-13 -1.06071e-13 -9.92521e-14 -9.32357e-14 -8.72192e-14 -8.12028e-14 -7.6435e-14 -7.55074e-14 -7.62693e-14 -7.70312e-14 -7.7793e-14 -7.90809e-14 -8.10533e-14 -8.20957e-14 -8.31382e-14 -8.41806e-14 -8.32507e-14 -7.99194e-14 -7.45658e-14 -6.92121e-14 -6.38585e-14 -5.76602e-14 -5.06557e-14 -4.26154e-14 -3.4575e-14 -2.65346e-14 -1.86675e-14 -1.28318e-14 -8.29612e-15 -3.76042e-15 7.75272e-16 3.73419e-15 5.47384e-15 5.20308e-15 4.93231e-15 4.66154e-15 2.94635e-15 3.30073e-15 2.47444e-15 1.64815e-15 8.21857e-16 -4.39137e-16
-1.43882e-13 -1.43877e-13 -1.43872e-13 -1.43866e-13 -1.43861e-13 -1.43856e-13 -1.41005e-13 -1.39691e-13 -1.38376e-13 -1.37061e-13 -1.36994e-13 -1.4034e-13 -1.45375e-13 -1.50411e-13 -1.55447e-13 -1.60754e-13 -1.63725e-13 -1.66114e-13 -1.68503e-13 -1.70892e-13 -1.726e-13 -1.70028e-13 -1.6533e-13 -1.60632e-13 -1.55934e-13 -1.50226e-13 -1.43326e-13 -1.36492e-13 -1.29658e-13 -1.22824e-13 -1.16135e-13 -1.13425e-13 -1.11645e-13 -1.09866e-13 -1.08086e-13 -1.07305e-13 -1.10434e-13 -1.13045e-13 -1.15657e-13 -1.18268e-13 -1.20566e-13 -1.19788e-13 -1.16843e-13 -1.13897e-13 -1.10952e-13 -1.06324e-13 -9.96978e-14 -9.36814e-14 -8.76649e-14 -8.16485e-14 -7.68807e-14 -7.55343e-14 -7.62962e-14 -7.70581e-14 -7.78199e-14 -7.91078e-14 -8.064e-14 -8.16824e-14 -8.27249e-14 -8.37673e-14 -8.28374e-14 -7.98154e-14 -7.44618e-14 -6.91082e-14 -6.37545e-14 -5.75563e-14 -5.09084e-14 -4.28681e-14 -3.48277e-14 -2.67873e-14 -1.89202e-14 -1.33105e-14 -8.77478e-15 -4.23909e-15 2.96609e-16 3.25552e-15 5.17225e-15 4.90148e-15 4.63072e-15 4.35995e-15 2.64476e-15 3.32356e-15 2.49727e-15 1.67097e-15 8.44684e-16 -4.1631e-16
-1.4406e-13 -1.44054e-13 -1.44049e-13 -1.44044e-13 -1.44039e-13 -1.44033e-13 -1.41156e-13 -1.39834e-13 -1.38519e-13 -1.37204e-13 -1.37138e-13 -1.4012e-13 -1.45053e-13 -1.50089e-13 -1.55124e-13 -1.60432e-13 -1.63288e-13 -1.65644e-13 -1.68033e-13 -1.70422e-13 -1.7213e-13 -1.69774e-13 -1.65137e-13 -1.60439e-13 -1.55741e-13 -1.50033e-13 -1.43161e-13 -1.36334e-13 -1.295e-13 -1.22666e-13 -1.15977e-13 -1.13286e-13 -1.11512e-13 -1.09732e-13 -1.07953e-13 -1.07171e-13 -1.10436e-13 -1.13085e-13 -1.15696e-13 -1.18307e-13 -1.20605e-13 -1.19993e-13 -1.17096e-13 -1.1415e-13 -1.11205e-13 -1.06577e-13 -1.00101e-13 -9.41271e-14 -8.81106e-14 -8.20942e-14 -7.73264e-14 -7.56537e-14 -7.63231e-14 -7.7085e-14 -7.78468e-14 -7.91347e-14 -8.03239e-14 -8.12692e-14 -8.23116e-14 -8.33541e-14 -8.24241e-14 -7.96431e-14 -7.43578e-14 -6.90042e-14 -6.36506e-14 -5.74523e-14 -5.10823e-14 -4.31208e-14 -3.50804e-14 -2.704e-14 -1.91729e-14 -1.37392e-14 -9.25345e-15 -4.71775e-15 -1.82055e-16 2.77686e-15 4.83154e-15 4.59989e-15 4.32912e-15 4.05836e-15 2.34317e-15 3.27472e-15 2.52009e-15 1.6938e-15 8.6751e-16 -3.93483e-16
-1.44237e-13 -1.44232e-13 -1.44227e-13 -1.44221e-13 -1.44216e-13 -1.44211e-13 -1.41334e-13 -1.39977e-13 -1.38663e-13 -1.37348e-13 -1.37281e-13 -1.40263e-13 -1.4473e-13 -1.49766e-13 -1.54802e-13 -1.60109e-13 -1.62965e-13 -1.65174e-13 -1.67563e-13 -1.69952e-13 -1.7166e-13 -1.69304e-13 -1.64944e-13 -1.60246e-13 -1.55548e-13 -1.4984e-13 -1.42968e-13 -1.36176e-13 -1.29342e-13 -1.22508e-13 -1.15819e-13 -1.13128e-13 -1.11378e-13 -1.09599e-13 -1.07819e-13 -1.07038e-13 -1.10302e-13 -1.13124e-13 -1.15735e-13 -1.18346e-13 -1.20644e-13 -1.20033e-13 -1.17349e-13 -1.14404e-13 -1.11458e-13 -1.0683e-13 -1.00354e-13 -9.45728e-14 -8.85563e-14 -8.25399e-14 -7.77721e-14 -7.60994e-14 -7.635e-14 -7.71119e-14 -7.78737e-14 -7.91616e-14 -8.03508e-14 -8.08559e-14 -8.18983e-14 -8.29408e-14 -8.20108e-14 -7.92299e-14 -7.42539e-14 -6.89002e-14 -6.35466e-14 -5.73483e-14 -5.09784e-14 -4.33734e-14 -3.53331e-14 -2.72927e-14 -1.94256e-14 -1.39919e-14 -9.73211e-15 -5.19641e-15 -6.60718e-16 2.2982e-15 4.35288e-15 4.2983e-15 4.02753e-15 3.75676e-15 2.04157e-15 2.97313e-15 2.54292e-15 1.71663e-15 8.90337e-16 -3.70656e-16
-1.44415e-13 -1.4441e-13 -1.44404e-13 -1.44399e-13 -1.44394e-13 -1.44388e-13 -1.41512e-13 -1.40121e-13 -1.38806e-13 -1.37491e-13 -1.37424e-13 -1.40407e-13 -1.44407e-13 -1.49443e-13 -1.54479e-13 -1.59786e-13 -1.62642e-13 -1.64705e-13 -1.67094e-13 -1.69483e-13 -1.7119e-13 -1.68834e-13 -1.64751e-13 -1.60053e-13 -1.55355e-13 -1.49647e-13 -1.42775e-13 -1.36018e-13 -1.29184e-13 -1.2235e-13 -1.15661e-13 -1.1297e-13 -1.11244e-13 -1.09465e-13 -1.07685e-13 -1.06904e-13 -1.10168e-13 -1.13164e-13 -1.15775e-13 -1.18386e-13 -1.20684e-13 -1.20072e-13 -1.17602e-13 -1.14657e-13 -1.11711e-13 -1.07083e-13 -1.00607e-13 -9.50185e-14 -8.9002e-14 -8.29856e-14 -7.82178e-14 -7.65451e-14 -7.63769e-14 -7.71388e-14 -7.79006e-14 -7.91885e-14 -8.03777e-14 -8.04426e-14 -8.1485e-14 -8.25275e-14 -8.15976e-14 -7.88166e-14 -7.41499e-14 -6.87963e-14 -6.34426e-14 -5.72444e-14 -5.08744e-14 -4.36261e-14 -3.55858e-14 -2.75454e-14 -1.96783e-14 -1.42446e-14 -1.02108e-14 -5.67508e-15 -1.13938e-15 1.81953e-15 3.87421e-15 3.9967e-15 3.72594e-15 3.45517e-15 1.73998e-15 2.67153e-15 2.56575e-15 1.73946e-15 9.13164e-16 -3.47829e-16
-1.44593e-13 -1.44587e-13 -1.44582e-13 -1.44577e-13 -1.44571e-13 -1.44566e-13 -1.41689e-13 -1.40264e-13 -1.38949e-13 -1.37635e-13 -1.37568e-13 -1.4055e-13 -1.44084e-13 -1.4912e-13 -1.54156e-13 -1.59463e-13 -1.62319e-13 -1.64235e-13 -1.66624e-13 -1.69013e-13 -1.7072e-13 -1.68364e-13 -1.64558e-13 -1.5986e-13 -1.55162e-13 -1.49454e-13 -1.42582e-13 -1.3586e-13 -1.29026e-13 -1.22192e-13 -1.15503e-13 -1.12812e-13 -1.11111e-13 -1.09331e-13 -1.07552e-13 -1.0677e-13 -1.10034e-13 -1.13203e-13 -1.15814e-13 -1.18425e-13 -1.20723e-13 -1.20112e-13 -1.17855e-13 -1.1491e-13 -1.11965e-13 -1.07336e-13 -1.0086e-13 -9.54642e-14 -8.94477e-14 -8.34313e-14 -7.86635e-14 -7.69908e-14 -7.64038e-14 -7.71657e-14 -7.79275e-14 -7.92154e-14 -8.04046e-14 -8.00293e-14 -8.10717e-14 -8.21142e-14 -8.11843e-14 -7.84033e-14 -7.4046e-14 -6.86923e-14 -6.33387e-14 -5.71404e-14 -5.07705e-14 -4.38788e-14 -3.58385e-14 -2.77981e-14 -1.9931e-14 -1.44973e-14 -1.06894e-14 -6.15374e-15 -1.61804e-15 1.34087e-15 3.39555e-15 3.69511e-15 3.42434e-15 3.15358e-15 1.43839e-15 2.36994e-15 2.58857e-15 1.76228e-15 9.35991e-16 -3.25002e-16
-1.4477e-13 -1.44765e-13 -1.4476e-13 -1.44754e-13 -1.44749e-13 -1.44744e-13 -1.41867e-13 -1.40422e-13 -1.39093e-13 -1.37778e-13 -1.37711e-13 -1.40694e-13 -1.43958e-13 -1.48797e-13 -1.53833e-13 -1.59141e-13 -1.61997e-13 -1.63827e-13 -1.66154e-13 -1.68543e-13 -1.70251e-13 -1.67895e-13 -1.64249e-13 -1.59667e-13 -1.54969e-13 -1.49261e-13 -1.42389e-13 -1.35688e-13 -1.28868e-13 -1.22034e-13 -1.15345e-13 -1.12654e-13 -1.10967e-13 -1.09198e-13 -1.07418e-13 -1.06637e-13 -1.09901e-13 -1.13169e-13 -1.15853e-13 -1.18464e-13 -1.20762e-13 -1.20151e-13 -1.18018e-13 -1.15163e-13 -1.12218e-13 -1.07589e-13 -1.01113e-13 -9.58288e-14 -8.98934e-14 -8.3877e-14 -7.91092e-14 -7.74365e-14 -7.6607e-14 -7.71926e-14 -7.79544e-14 -7.92423e-14 -8.04315e-14 -7.98013e-14 -8.06585e-14 -8.17009e-14 -8.0771e-14 -7.799e-14 -7.38118e-14 -6.85884e-14 -6.32347e-14 -5.70364e-14 -5.06665e-14 -4.39814e-14 -3.60911e-14 -2.80508e-14 -2.01837e-14 -1.475e-14 -1.1073e-14 -6.6324e-15 -2.09671e-15 8.62206e-16 2.91689e-15 3.31899e-15 3.12275e-15 2.85198e-15 1.1368e-15 2.06835e-15 2.47485e-15 1.78511e-15 9.58818e-16 -3.02175e-16
-1.44948e-13 -1.44942e-13 -1.44937e-13 -1.44932e-13 -1.44926e-13 -1.44921e-13 -1.42044e-13 -1.406e-13 -1.39236e-13 -1.37921e-13 -1.37855e-13 -1.40837e-13 -1.44101e-13 -1.48475e-13 -1.53511e-13 -1.58818e-13 -1.61674e-13 -1.63504e-13 -1.65684e-13 -1.68073e-13 -1.69781e-13 -1.67425e-13 -1.63779e-13 -1.59474e-13 -1.54776e-13 -1.49068e-13 -1.42196e-13 -1.35495e-13 -1.2871e-13 -1.21876e-13 -1.15187e-13 -1.12496e-13 -1.10809e-13 -1.09064e-13 -1.07284e-13 -1.06503e-13 -1.09767e-13 -1.13036e-13 -1.15893e-13 -1.18504e-13 -1.20802e-13 -1.2019e-13 -1.18057e-13 -1.15416e-13 -1.12471e-13 -1.07842e-13 -1.01366e-13 -9.60818e-14 -9.03391e-14 -8.43227e-14 -7.95549e-14 -7.78822e-14 -7.70527e-14 -7.72195e-14 -7.79813e-14 -7.92692e-14 -8.04584e-14 -7.98282e-14 -8.02452e-14 -8.12876e-14 -8.03577e-14 -7.75767e-14 -7.33985e-14 -6.84844e-14 -6.31308e-14 -5.69325e-14 -5.05625e-14 -4.38775e-14 -3.63438e-14 -2.83035e-14 -2.04364e-14 -1.50027e-14 -1.13257e-14 -7.11107e-15 -2.57537e-15 3.83542e-16 2.43822e-15 2.84033e-15 2.82116e-15 2.55039e-15 8.35202e-16 1.76675e-15 2.17326e-15 1.80794e-15 9.81645e-16 -2.79348e-16
-1.45125e-13 -1.4512e-13 -1.45115e-13 -1.45109e-13 -1.45104e-13 -1.45099e-13 -1.42222e-13 -1.40777e-13 -1.3938e-13 -1.38065e-13 -1.37998e-13 -1.40981e-13 -1.44245e-13 -1.48152e-13 -1.53188e-13 -1.58495e-13 -1.61351e-13 -1.63181e-13 -1.65214e-13 -1.67603e-13 -1.69311e-13 -1.66955e-13 -1.63309e-13 -1.59281e-13 -1.54583e-13 -1.48875e-13 -1.42003e-13 -1.35302e-13 -1.28552e-13 -1.21718e-13 -1.15029e-13 -1.12338e-13 -1.10651e-13 -1.0893e-13 -1.07151e-13 -1.06369e-13 -1.09633e-13 -1.12902e-13 -1.15932e-13 -1.18543e-13 -1.20841e-13 -1.2023e-13 -1.18097e-13 -1.15669e-13 -1.12724e-13 -1.08095e-13 -1.01619e-13 -9.63349e-14 -9.07848e-14 -8.47684e-14 -8.00006e-14 -7.83279e-14 -7.74984e-14 -7.72464e-14 -7.80082e-14 -7.92961e-14 -8.04853e-14 -7.98551e-14 -7.98319e-14 -8.08743e-14 -7.99444e-14 -7.71634e-14 -7.29852e-14 -6.83804e-14 -6.30268e-14 -5.68285e-14 -5.04586e-14 -4.37735e-14 -3.65965e-14 -2.85562e-14 -2.06891e-14 -1.52554e-14 -1.15784e-14 -7.58973e-15 -3.05404e-15 -9.51214e-17 1.95956e-15 2.36166e-15 2.51957e-15 2.2488e-15 5.33609e-16 1.46516e-15 1.87167e-15 1.83076e-15 1.00447e-15 -2.56521e-16
-1.45303e-13 -1.45298e-13 -1.45292e-13 -1.45287e-13 -1.45282e-13 -1.45276e-13 -1.424e-13 -1.40955e-13 -1.39523e-13 -1.38208e-13 -1.38142e-13 -1.41124e-13 -1.44388e-13 -1.47829e-13 -1.52865e-13 -1.58172e-13 -1.61028e-13 -1.62859e-13 -1.64745e-13 -1.67134e-13 -1.68841e-13 -1.66485e-13 -1.62839e-13 -1.59088e-13 -1.5439e-13 -1.48682e-13 -1.4181e-13 -1.35109e-13 -1.28395e-13 -1.2156e-13 -1.14872e-13 -1.1218e-13 -1.10493e-13 -1.08796e-13 -1.07017e-13 -1.06235e-13 -1.095e-13 -1.12768e-13 -1.15971e-13 -1.18582e-13 -1.2088e-13 -1.20269e-13 -1.18136e-13 -1.15922e-13 -1.12977e-13 -1.08348e-13 -1.01872e-13 -9.65879e-14 -9.12305e-14 -8.52141e-14 -8.04463e-14 -7.87736e-14 -7.79441e-14 -7.72733e-14 -7.80351e-14 -7.9323e-14 -8.05122e-14 -7.9882e-14 -7.94186e-14 -8.04611e-14 -7.95311e-14 -7.67501e-14 -7.25719e-14 -6.82765e-14 -6.29228e-14 -5.67246e-14 -5.03546e-14 -4.36695e-14 -3.68492e-14 -2.88088e-14 -2.09418e-14 -1.55081e-14 -1.18311e-14 -8.0684e-15 -3.5327e-15 -5.73785e-16 1.4809e-15 1.883e-15 2.21797e-15 1.94721e-15 2.32016e-16 1.16357e-15 1.57007e-15 1.85359e-15 1.0273e-15 -2.33694e-16
-1.45481e-13 -1.45475e-13 -1.4547e-13 -1.45465e-13 -1.45459e-13 -1.45454e-13 -1.42577e-13 -1.41133e-13 -1.39688e-13 -1.38352e-13 -1.38285e-13 -1.41268e-13 -1.44532e-13 -1.47796e-13 -1.52542e-13 -1.5785e-13 -1.60706e-13 -1.62536e-13 -1.64366e-13 -1.66664e-13 -1.68372e-13 -1.66015e-13 -1.62369e-13 -1.58723e-13 -1.54197e-13 -1.48489e-13 -1.41617e-13 -1.34916e-13 -1.28215e-13 -1.21402e-13 -1.14714e-13 -1.12023e-13 -1.10335e-13 -1.08648e-13 -1.06883e-13 -1.06102e-13 -1.09366e-13 -1.12635e-13 -1.15903e-13 -1.18622e-13 -1.2092e-13 -1.20308e-13 -1.18175e-13 -1.16042e-13 -1.1323e-13 -1.08601e-13 -1.02125e-13 -9.6841e-14 -9.15566e-14 -8.56598e-14 -8.0892e-14 -7.92193e-14 -7.83898e-14 -7.75602e-14 -7.8062e-14 -7.93499e-14 -8.05391e-14 -7.99089e-14 -7.92786e-14 -8.00478e-14 -7.91179e-14 -7.63369e-14 -7.21587e-14 -6.79805e-14 -6.28189e-14 -5.66206e-14 -5.02507e-14 -4.35656e-14 -3.68805e-14 -2.90615e-14 -2.11945e-14 -1.57608e-14 -1.20838e-14 -8.40675e-15 -4.01136e-15 -1.05245e-15 1.00223e-15 1.40434e-15 1.80644e-15 1.64561e-15 -6.95767e-17 8.61975e-16 1.26848e-15 1.67498e-15 1.05013e-15 -2.10868e-16
-1.45658e-13 -1.45653e-13 -1.45647e-13 -1.45642e-13 -1.45637e-13 -1.45632e-13 -1.42755e-13 -1.4131e-13 -1.39866e-13 -1.38495e-13 -1.38429e-13 -1.41411e-13 -1.44675e-13 -1.47939e-13 -1.5222e-13 -1.57527e-13 -1.60383e-13 -1.62213e-13 -1.64043e-13 -1.66194e-13 -1.67902e-13 -1.65546e-13 -1.619e-13 -1.58254e-13 -1.54004e-13 -1.48296e-13 -1.41424e-13 -1.34723e-13 -1.28022e-13 -1.21244e-13 -1.14556e-13 -1.11865e-13 -1.10177e-13 -1.0849e-13 -1.0675e-13 -1.05968e-13 -1.09232e-13 -1.12501e-13 -1.1577e-13 -1.18661e-13 -1.20959e-13 -1.20348e-13 -1.18215e-13 -1.16082e-13 -1.13483e-13 -1.08855e-13 -1.02378e-13 -9.7094e-14 -9.18097e-14 -8.61055e-14 -8.13377e-14 -7.9665e-14 -7.88355e-14 -7.80059e-14 -7.80889e-14 -7.93768e-14 -8.0566e-14 -7.99358e-14 -7.93055e-14 -7.96345e-14 -7.87046e-14 -7.59236e-14 -7.17454e-14 -6.75672e-14 -6.27149e-14 -5.65166e-14 -5.01467e-14 -4.34616e-14 -3.67765e-14 -2.93142e-14 -2.14472e-14 -1.60135e-14 -1.23365e-14 -8.65945e-15 -4.49003e-15 -1.53111e-15 5.23571e-16 9.25672e-16 1.32777e-15 1.34402e-15 -3.7117e-16 5.60382e-16 9.66887e-16 1.37339e-15 1.07295e-15 -1.88041e-16
-1.45836e-13 -1.4583e-13 -1.45825e-13 -1.4582e-13 -1.45814e-13 -1.45809e-13 -1.42932e-13 -1.41488e-13 -1.40043e-13 -1.38639e-13 -1.38572e-13 -1.41554e-13 -1.44819e-13 -1.48083e-13 -1.51897e-13 -1.57204e-13 -1.6006e-13 -1.6189e-13 -1.63721e-13 -1.65724e-13 -1.67432e-13 -1.65076e-13 -1.6143e-13 -1.57784e-13 -1.53811e-13 -1.48103e-13 -1.41231e-13 -1.3453e-13 -1.27829e-13 -1.21087e-13 -1.14398e-13 -1.11707e-13 -1.10019e-13 -1.08332e-13 -1.06616e-13 -1.05834e-13 -1.09099e-13 -1.12367e-13 -1.15636e-13 -1.187e-13 -1.20998e-13 -1.20387e-13 -1.18254e-13 -1.16121e-13 -1.13736e-13 -1.09108e-13 -1.02631e-13 -9.73471e-14 -9.20627e-14 -8.65512e-14 -8.17834e-14 -8.01107e-14 -7.92812e-14 -7.84516e-14 -7.81158e-14 -7.94037e-14 -8.05929e-14 -7.99627e-14 -7.93324e-14 -7.92212e-14 -7.82913e-14 -7.55103e-14 -7.13321e-14 -6.71539e-14 -6.2611e-14 -5.64127e-14 -5.00427e-14 -4.33576e-14 -3.66726e-14 -2.95669e-14 -2.16999e-14 -1.62662e-14 -1.25892e-14 -8.91214e-15 -4.96869e-15 -2.00978e-15 4.4907e-17 4.47008e-16 8.49109e-16 1.04243e-15 -6.72763e-16 2.58789e-16 6.65294e-16 1.0718e-15 1.09578e-15 -1.65214e-16
-1.46013e-13 -1.46008e-13 -1.46003e-13 -1.45997e-13 -1.45992e-13 -1.45987e-13 -1.4311e-13 -1.41665e-13 -1.40221e-13 -1.38782e-13 -1.38716e-13 -1.41698e-13 -1.44962e-13 -1.48226e-13 -1.51574e-13 -1.56881e-13 -1.59737e-13 -1.61567e-13 -1.63398e-13 -1.65254e-13 -1.66962e-13 -1.64606e-13 -1.6096e-13 -1.57314e-13 -1.53618e-13 -1.4791e-13 -1.41038e-13 -1.34337e-13 -1.27636e-13 -1.20929e-13 -1.1424e-13 -1.11549e-13 -1.09861e-13 -1.08174e-13 -1.06482e-13 -1.05701e-13 -1.08965e-13 -1.12234e-13 -1.15502e-13 -1.1874e-13 -1.21038e-13 -1.20426e-13 -1.18293e-13 -1.1616e-13 -1.13989e-13 -1.09361e-13 -1.02884e-13 -9.76001e-14 -9.23158e-14 -8.69969e-14 -8.22291e-14 -8.05564e-14 -7.97269e-14 -7.88973e-14 -7.81427e-14 -7.94306e-14 -8.06198e-14 -7.99896e-14 -7.93593e-14 -7.88079e-14 -7.7878e-14 -7.5097e-14 -7.09188e-14 -6.67406e-14 -6.2507e-14 -5.63087e-14 -4.99388e-14 -4.32537e-14 -3.65686e-14 -2.98196e-14 -2.19526e-14 -1.65189e-14 -1.28418e-14 -9.16484e-15 -5.44735e-15 -2.48844e-15 -4.33756e-16 -3.16552e-17 3.70446e-16 7.40834e-16 -9.74356e-16 -4.28043e-17 3.63701e-16 7.70205e-16 1.11861e-15 -1.42387e-16
-1.46191e-13 -1.46186e-13 -1.4618e-13 -1.46175e-13 -1.4617e-13 -1.46164e-13 -1.43288e-13 -1.41843e-13 -1.40398e-13 -1.38954e-13 -1.38859e-13 -1.41841e-13 -1.45106e-13 -1.4837e-13 -1.51634e-13 -1.56558e-13 -1.59414e-13 -1.61245e-13 -1.63075e-13 -1.64905e-13 -1.66492e-13 -1.64136e-13 -1.6049e-13 -1.56844e-13 -1.53198e-13 -1.47717e-13 -1.40845e-13 -1.34144e-13 -1.27443e-13 -1.20742e-13 -1.14082e-13 -1.11391e-13 -1.09703e-13 -1.08016e-13 -1.06329e-13 -1.05567e-13 -1.08831e-13 -1.121e-13 -1.15368e-13 -1.18637e-13 -1.21077e-13 -1.20466e-13 -1.18333e-13 -1.162e-13 -1.14067e-13 -1.09614e-13 -1.03138e-13 -9.78532e-14 -9.25688e-14 -8.72845e-14 -8.26748e-14 -8.10021e-14 -8.01726e-14 -7.9343e-14 -7.85134e-14 -7.94575e-14 -8.06467e-14 -8.00165e-14 -7.93862e-14 -7.8756e-14 -7.74647e-14 -7.46837e-14 -7.05055e-14 -6.63273e-14 -6.21491e-14 -5.62048e-14 -4.98348e-14 -4.31497e-14 -3.64646e-14 -2.97795e-14 -2.22052e-14 -1.67716e-14 -1.30945e-14 -9.41753e-15 -5.74052e-15 -2.9671e-15 -9.1242e-16 -5.10319e-16 -1.08218e-16 2.93884e-16 -1.27595e-15 -3.44397e-16 6.21076e-17 4.68612e-16 8.75117e-16 -1.1956e-16
-1.46368e-13 -1.46363e-13 -1.46358e-13 -1.46353e-13 -1.46347e-13 -1.46342e-13 -1.43465e-13 -1.42021e-13 -1.40576e-13 -1.39131e-13 -1.39003e-13 -1.41985e-13 -1.45249e-13 -1.48513e-13 -1.51777e-13 -1.56236e-13 -1.59092e-13 -1.60922e-13 -1.62752e-13 -1.64583e-13 -1.66023e-13 -1.63667e-13 -1.6002e-13 -1.56374e-13 -1.52728e-13 -1.47524e-13 -1.40652e-13 -1.33951e-13 -1.2725e-13 -1.20549e-13 -1.13924e-13 -1.11233e-13 -1.09546e-13 -1.07858e-13 -1.06171e-13 -1.05433e-13 -1.08698e-13 -1.11966e-13 -1.15235e-13 -1.18503e-13 -1.21117e-13 -1.20505e-13 -1.18372e-13 -1.16239e-13 -1.14106e-13 -1.09867e-13 -1.03391e-13 -9.81062e-14 -9.28219e-14 -8.75375e-14 -8.31205e-14 -8.14478e-14 -8.06183e-14 -7.97887e-14 -7.89591e-14 -7.94844e-14 -8.06736e-14 -8.00434e-14 -7.94131e-14 -7.87829e-14 -7.70514e-14 -7.42704e-14 -7.00922e-14 -6.5914e-14 -6.17358e-14 -5.61008e-14 -4.97308e-14 -4.30458e-14 -3.63607e-14 -2.96756e-14 -2.24579e-14 -1.70242e-14 -1.33472e-14 -9.67022e-15 -5.99321e-15 -3.44577e-15 -1.39108e-15 -9.88982e-16 -5.86881e-16 -1.8478e-16 -1.57754e-15 -6.4599e-16 -2.39485e-16 1.67019e-16 5.73524e-16 -9.67329e-17