# vtk DataFile Version 2.0
track0
ASCII
DATASET POLYDATA
POINTS 1720 float
-1.001 -0.05 0.0011
-1.0008 -0.05 0.0011
-1.0006 -0.05 0.0011
-1.0004 -0.05 0.0011
-1.0002 -0.05 0.0011
-1 -0.05 0.0011
-0.8 -0.05 0.0011
-0.6 -0.05 0.0011
-0.4 -0.05 0.0011
-0.2 -0.05 0.0011
0 -0.05 0.0011
0.2 -0.05 0.0011
0.4 -0.05 0.0011
0.6 -0.05 0.0011
0.8 -0.05 0.0011
1 -0.05 0.0011
1.2 -0.05 0.0011
1.4 -0.05 0.0011
1.6 -0.05 0.0011
1.8 -0.05 0.0011
2 -0.05 0.0011
2.2 -0.05 0.0011
2.4 -0.05 0.0011
2.6 -0.05 0.0011
2.8 -0.05 0.0011
3 -0.05 0.0011
3.2 -0.05 0.0011
3.4 -0.05 0.0011
3.6 -0.05 0.0011
3.8 -0.05 0.0011
4 -0.05 0.0011
4.2 -0.05 0.0011
4.4 -0.05 0.0011
4.6 -0.05 0.0011
4.8 -0.05 0.0011
5 -0.05 0.0011
5.2 -0.05 0.0011
5.4 -0.05 0.0011
5.6 -0.05 0.0011
5.8 -0.05 0.0011
6 -0.05 0.0011
6.2 -0.05 0.0011
6.4 -0.05 0.0011
6.6 -0.05 0.0011
6.8 -0.05 0.0011
7 -0.05 0.0011
7.2 -0.05 0.0011
7.4 -0.05 0.0011
7.6 -0.05 0.0011
7.8 -0.05 0.0011
8 -0.05 0.0011
8.2 -0.05 0.0011
8.4 -0.05 0.0011
8.6 -0.05 0.0011
8.8 -0.05 0.0011
9 -0.05 0.0011
9.2 -0.05 0.0011
9.4 -0.05 0.0011
9.6 -0.05 0.0011
9.8 -0.05 0.0011
10 -0.05 0.0011
10.2 -0.05 0.0011
10.4 -0.05 0.0011
10.6 -0.05 0.0011
10.8 -0.05 0.0011
11 -0.05 0.0011
11.2 -0.05 0.0011
11.4 -0.05 0.0011
11.6 -0.05 0.0011
11.8 -0.05 0.0011
12 -0.05 0.0011
12.2 -0.05 0.0011
12.4 -0.05 0.0011
12.6 -0.05 0.0011
12.8 -0.05 0.0011
13 -0.05 0.0011
13.2 -0.05 0.0011
13.4 -0.05 0.0011
13.6 -0.05 0.0011
13.8 -0.05 0.0011
14 -0.05 0.0011
14.2 -0.05 0.0011
14.4 -0.05 0.0011
14.6 -0.05 0.0011
14.8 -0.05 0.0011
15 -0.05 0.0011
-1.001 -0.05 0.0537316
-1.0008 -0.05 0.0537316
-1.0006 -0.05 0.0537316
-1.0004 -0.05 0.0537316
-1.0002 -0.05 0.0537316
-1 -0.05 0.0537316
-0.8 -0.05 0.0537316
-0.6 -0.05 0.0537316
-0.4 -0.05 0.0537316
-0.2 -0.05 0.0537316
0 -0.05 0.0537316
0.2 -0.05 0.0537316
0.4 -0.05 0.0537316
0.6 -0.05 0.0537316
0.8 -0.05 0.0537316
1 -0.05 0.0537316
1.2 -0.05 0.0537316
1.4 -0.05 0.0537316
1.6 -0.05 0.0537316
1.8 -0.05 0.0537316
2 -0.05 0.0537316
2.2 -0.05 0.0537316
2.4 -0.05 0.0537316
2.6 -0.05 0.0537316
2.8 -0.05 0.0537316
3 -0.05 0.0537316
3.2 -0.05 0.0537316
3.4 -0.05 0.0537316
3.6 -0.05 0.0537316
3.8 -0.05 0.0537316
4 -0.05 0.0537316
4.2 -0.05 0.0537316
4.4 -0.05 0.0537316
4.6 -0.05 0.0537316
4.8 -0.05 0.0537316
5 -0.05 0.0537316
5.2 -0.05 0.0537316
5.4 -0.05 0.0537316
5.6 -0.05 0.0537316
5.8 -0.05 0.0537316
6 -0.05 0.0537316
6.2 -0.05 0.0537316
6.4 -0.05 0.0537316
6.6 -0.05 0.0537316
6.8 -0.05 0.0537316
7 -0.05 0.0537316
7.2 -0.05 0.0537316
7.4 -0.05 0.0537316
7.6 -0.05 0.0537316
7.8 -0.05 0.0537316
8 -0.05 0.0537316
8.2 -0.05 0.0537316
8.4 -0.05 0.0537316
8.6 -0.05 0.0537316
8.8 -0.05 0.0537316
9 -0.05 0.0537316
9.2 -0.05 0.0537316
9.4 -0.05 0.0537316
9.6 -0.05 0.0537316
9.8 -0.05 0.0537316
10 -0.05 0.0537316
10.2 -0.05 0.0537316
10.4 -0.05 0.0537316
10.6 -0.05 0.0537316
10.8 -0.05 0.0537316
11 -0.05 0.0537316
11.2 -0.05 0.0537316
11.4 -0.05 0.0537316
11.6 -0.05 0.0537316
11.8 -0.05 0.0537316
12 -0.05 0.0537316
12.2 -0.05 0.0537316
12.4 -0.05 0.0537316
12.6 -0.05 0.0537316
12.8 -0.05 0.0537316
13 -0.05 0.0537316
13.2 -0.05 0.0537316
13.4 -0.05 0.0537316
13.6 -0.05 0.0537316
13.8 -0.05 0.0537316
14 -0.05 0.0537316
14.2 -0.05 0.0537316
14.4 -0.05 0.0537316
14.6 -0.05 0.0537316
14.8 -0.05 0.0537316
15 -0.05 0.0537316
-1.001 -0.05 0.106363
-1.0008 -0.05 0.106363
-1.0006 -0.05 0.106363
-1.0004 -0.05 0.106363
-1.0002 -0.05 0.106363
-1 -0.05 0.106363
-0.8 -0.05 0.106363
-0.6 -0.05 0.106363
-0.4 -0.05 0.106363
-0.2 -0.05 0.106363
0 -0.05 0.106363
0.2 -0.05 0.106363
0.4 -0.05 0.106363
0.6 -0.05 0.106363
0.8 -0.05 0.106363
1 -0.05 0.106363
1.2 -0.05 0.106363
1.4 -0.05 0.106363
1.6 -0.05 0.106363
1.8 -0.05 0.106363
2 -0.05 0.106363
2.2 -0.05 0.106363
2.4 -0.05 0.106363
2.6 -0.05 0.106363
2.8 -0.05 0.106363
3 -0.05 0.106363
3.2 -0.05 0.106363
3.4 -0.05 0.106363
3.6 -0.05 0.106363
3.8 -0.05 0.106363
4 -0.05 0.106363
4.2 -0.05 0.106363
4.4 -0.05 0.106363
4.6 -0.05 0.106363
4.8 -0.05 0.106363
5 -0.05 0.106363
5.2 -0.05 0.106363
5.4 -0.05 0.106363
5.6 -0.05 0.106363
5.8 -0.05 0.106363
6 -0.05 0.106363
6.2 -0.05 0.106363
6.4 -0.05 0.106363
6.6 -0.05 0.106363
6.8 -0.05 0.106363
7 -0.05 0.106363
7.2 -0.05 0.106363
7.4 -0.05 0.106363
7.6 -0.05 0.106363
7.8 -0.05 0.106363
8 -0.05 0.106363
8.2 -0.05 0.106363
8.4 -0.05 0.106363
8.6 -0.05 0.106363
8.8 -0.05 0.106363
9 -0.05 0.106363
9.2 -0.05 0.106363
9.4 -0.05 0.106363
9.6 -0.05 0.106363
9.8 -0.05 0.106363
10 -0.05 0.106363
10.2 -0.05 0.106363
10.4 -0.05 0.106363
10.6 -0.05 0.106363
10.8 -0.05 0.106363
11 -0.05 0.106363
11.2 -0.05 0.106363
11.4 -0.05 0.106363
11.6 -0.05 0.106363
11.8 -0.05 0.106363
12 -0.05 0.106363
12.2 -0.05 0.106363
12.4 -0.05 0.106363
12.6 -0.05 0.106363
12.8 -0.05 0.106363
13 -0.05 0.106363
13.2 -0.05 0.106363
13.4 -0.05 0.106363
13.6 -0.05 0.106363
13.8 -0.05 0.106363
14 -0.05 0.106363
14.2 -0.05 0.106363
14.4 -0.05 0.106363
14.6 -0.05 0.106363
14.8 -0.05 0.106363
15 -0.05 0.106363
-1.001 -0.05 0.158995
-1.0008 -0.05 0.158995
-1.0006 -0.05 0.158995
-1.0004 -0.05 0.158995
-1.0002 -0.05 0.158995
-1 -0.05 0.158995
-0.8 -0.05 0.158995
-0.6 -0.05 0.158995
-0.4 -0.05 0.158995
-0.2 -0.05 0.158995
0 -0.05 0.158995
0.2 -0.05 0.158995
0.4 -0.05 0.158995
0.6 -0.05 0.158995
0.8 -0.05 0.158995
1 -0.05 0.158995
1.2 -0.05 0.158995
1.4 -0.05 0.158995
1.6 -0.05 0.158995
1.8 -0.05 0.158995
2 -0.05 0.158995
2.2 -0.05 0.158995
2.4 -0.05 0.158995
2.6 -0.05 0.158995
2.8 -0.05 0.158995
3 -0.05 0.158995
3.2 -0.05 0.158995
3.4 -0.05 0.158995
3.6 -0.05 0.158995
3.8 -0.05 0.158995
4 -0.05 0.158995
4.2 -0.05 0.158995
4.4 -0.05 0.158995
4.6 -0.05 0.158995
4.8 -0.05 0.158995
5 -0.05 0.158995
5.2 -0.05 0.158995
5.4 -0.05 0.158995
5.6 -0.05 0.158995
5.8 -0.05 0.158995
6 -0.05 0.158995
6.2 -0.05 0.158995
6.4 -0.05 0.158995
6.6 -0.05 0.158995
6.8 -0.05 0.158995
7 -0.05 0.158995
7.2 -0.05 0.158995
7.4 -0.05 0.158995
7.6 -0.05 0.158995
7.8 -0.05 0.158995
8 -0.05 0.158995
8.2 -0.05 0.158995
8.4 -0.05 0.158995
8.6 -0.05 0.158995
8.8 -0.05 0.158995
9 -0.05 0.158995
9.2 -0.05 0.158995
9.4 -0.05 0.158995
9.6 -0.05 0.158995
9.8 -0.05 0.158995
10 -0.05 0.158995
10.2 -0.05 0.158995
10.4 -0.05 0.158995
10.6 -0.05 0.158995
10.8 -0.05 0.158995
11 -0.05 0.158995
11.2 -0.05 0.158995
11.4 -0.05 0.158995
11.6 -0.05 0.158995
11.8 -0.05 0.158995
12 -0.05 0.158995
12.2 -0.05 0.158995
12.4 -0.05 0.158995
12.6 -0.05 0.158995
12.8 -0.05 0.158995
13 -0.05 0.158995
13.2 -0.05 0.158995
13.4 -0.05 0.158995
13.6 -0.05 0.158995
13.8 -0.05 0.158995
14 -0.05 0.158995
14.2 -0.05 0.158995
14.4 -0.05 0.158995
14.6 -0.05 0.158995
14.8 -0.05 0.158995
15 -0.05 0.158995
-1.001 -0.05 0.211626
-1.0008 -0.05 0.211626
-1.0006 -0.05 0.211626
-1.0004 -0.05 0.211626
-1.0002 -0.05 0.211626
-1 -0.05 0.211626
-0.8 -0.05 0.211626
-0.6 -0.05 0.211626
-0.4 -0.05 0.211626
-0.2 -0.05 0.211626
0 -0.05 0.211626
0.2 -0.05 0.211626
0.4 -0.05 0.211626
0.6 -0.05 0.211626
0.8 -0.05 0.211626
1 -0.05 0.211626
1.2 -0.05 0.211626
1.4 -0.05 0.211626
1.6 -0.05 0.211626
1.8 -0.05 0.211626
2 -0.05 0.211626
2.2 -0.05 0.211626
2.4 -0.05 0.211626
2.6 -0.05 0.211626
2.8 -0.05 0.211626
3 -0.05 0.211626
3.2 -0.05 0.211626
3.4 -0.05 0.211626
3.6 -0.05 0.211626
3.8 -0.05 0.211626
4 -0.05 0.211626
4.2 -0.05 0.211626
4.4 -0.05 0.211626
4.6 -0.05 0.211626
4.8 -0.05 0.211626
5 -0.05 0.211626
5.2 -0.05 0.211626
5.4 -0.05 0.211626
5.6 -0.05 0.211626
5.8 -0.05 0.211626
6 -0.05 0.211626
6.2 -0.05 0.211626
6.4 -0.05 0.211626
6.6 -0.05 0.211626
6.8 -0.05 0.211626
7 -0.05 0.211626
7.2 -0.05 0.211626
7.4 -0.05 0.211626
7.6 -0.05 0.211626
7.8 -0.05 0.211626
8 -0.05 0.211626
8.2 -0.05 0.211626
8.4 -0.05 0.211626
8.6 -0.05 0.211626
8.8 -0.05 0.211626
9 -0.05 0.211626
9.2 -0.05 0.211626
9.4 -0.05 0.211626
9.6 -0.05 0.211626
9.8 -0.05 0.211626
10 -0.05 0.211626
10.2 -0.05 0.211626
10.4 -0.05 0.211626
10.6 -0.05 0.211626
10.8 -0.05 0.211626
11 -0.05 0.211626
11.2 -0.05 0.211626
11.4 -0.05 0.211626
11.6 -0.05 0.211626
11.8 -0.05 0.211626
12 -0.05 0.211626
12.2 -0.05 0.211626
12.4 -0.05 0.211626
12.6 -0.05 0.211626
12.8 -0.05 0.211626
13 -0.05 0.211626
13.2 -0.05 0.211626
13.4 -0.05 0.211626
13.6 -0.05 0.211626
13.8 -0.05 0.211626
14 -0.05 0.211626
14.2 -0.05 0.211626
14.4 -0.05 0.211626
14.6 -0.05 0.211626
14.8 -0.05 0.211626
15 -0.05 0.211626
-1.001 -0.05 0.264258
-1.0008 -0.05 0.264258
-1.0006 -0.05 0.264258
-1.0004 -0.05 0.264258
-1.0002 -0.05 0.264258
-1 -0.05 0.264258
-0.8 -0.05 0.264258
-0.6 -0.05 0.264258
-0.4 -0.05 0.264258
-0.2 -0.05 0.264258
0 -0.05 0.264258
0.2 -0.05 0.264258
0.4 -0.05 0.264258
0.6 -0.05 0.264258
0.8 -0.05 0.264258
1 -0.05 0.264258
1.2 -0.05 0.264258
1.4 -0.05 0.264258
1.6 -0.05 0.264258
1.8 -0.05 0.264258
2 -0.05 0.264258
2.2 -0.05 0.264258
2.4 -0.05 0.264258
2.6 -0.05 0.264258
2.8 -0.05 0.264258
3 -0.05 0.264258
3.2 -0.05 0.264258
3.4 -0.05 0.264258
3.6 -0.05 0.264258
3.8 -0.05 0.264258
4 -0.05 0.264258
4.2 -0.05 0.264258
4.4 -0.05 0.264258
4.6 -0.05 0.264258
4.8 -0.05 0.264258
5 -0.05 0.264258
5.2 -0.05 0.264258
5.4 -0.05 0.264258
5.6 -0.05 0.264258
5.8 -0.05 0.264258
6 -0.05 0.264258
6.2 -0.05 0.264258
6.4 -0.05 0.264258
6.6 -0.05 0.264258
6.8 -0.05 0.264258
7 -0.05 0.264258
7.2 -0.05 0.264258
7.4 -0.05 0.264258
7.6 -0.05 0.264258
7.8 -0.05 0.264258
8 -0.05 0.264258
8.2 -0.05 0.264258
8.4 -0.05 0.264258
8.6 -0.05 0.264258
8.8 -0.05 0.264258
9 -0.05 0.264258
9.2 -0.05 0.264258
9.4 -0.05 0.264258
9.6 -0.05 0.264258
9.8 -0.05 0.264258
10 -0.05 0.264258
10.2 -0.05 0.264258
10.4 -0.05 0.264258
10.6 -0.05 0.264258
10.8 -0.05 0.264258
11 -0.05 0.264258
11.2 -0.05 0.264258
11.4 -0.05 0.264258
11.6 -0.05 0.264258
11.8 -0.05 0.264258
12 -0.05 0.264258
12.2 -0.05 0.264258
12.4 -0.05 0.264258
12.6 -0.05 0.264258
12.8 -0.05 0.264258
13 -0.05 0.264258
13.2 -0.05 0.264258
13.4 -0.05 0.264258
13.6 -0.05 0.264258
13.8 -0.05 0.264258
14 -0.05 0.264258
14.2 -0.05 0.264258
14.4 -0.05 0.264258
14.6 -0.05 0.264258
14.8 -0.05 0.264258
15 -0.05 0.264258
-1.001 -0.05 0.316889
-1.0008 -0.05 0.316889
-1.0006 -0.05 0.316889
-1.0004 -0.05 0.316889
[...]
POINT_DATA 1720
 FIELD attributes 1
U 3 1720 float
20 	3.79352e-19 	2.74135e-18 20 	2.37262e-19 	2.38484e-18 20 	9.51711e-20 	2.02833e-18 20 	-4.69193e-20 	1.67183e-18 20 	-1.8901e-19 	1.31532e-18 20 	-3.311e-19 	9.58812e-19 20 	1.80351e-18 	1.66584e-18 20 	1.80351e-18 	1.66584e-18 20 	1.80351e-18 	1.66584e-18 20 	1.80351e-18 	1.66584e-18 20 	-3.73014e-19 	1.06051e-18 20 	2.14896e-18 	1.40463e-18 20 	2.14896e-18 	1.40463e-18 20 	2.14896e-18 	1.40463e-18 20 	2.14896e-18 	1.40463e-18 20 	9.81227e-20 	6.89067e-19 20 	3.93448e-18 	1.2528e-18 20 	3.93448e-18 	1.2528e-18 20 	3.93448e-18 	1.2528e-18 20 	3.93448e-18 	1.2528e-18 20 	2.58382e-19 	-3.42799e-20 20 	1.59448e-18 	9.15709e-19 20 	1.59448e-18 	9.15709e-19 20 	1.59448e-18 	9.15709e-19 20 	1.59448e-18 	9.15709e-19 20 	-2.09923e-19 	-1.50084e-19 20 	-3.98071e-19 	-5.7047e-19 20 	-3.98071e-19 	-5.7047e-19 20 	-3.98071e-19 	-5.7047e-19 20 	-3.98071e-19 	-5.7047e-19 20 	-3.29698e-19 	-2.04054e-19 20 	-1.03075e-18 	-1.55301e-18 20 	-1.03075e-18 	-1.55301e-18 20 	-1.03075e-18 	-1.55301e-18 20 	-1.03075e-18 	-1.55301e-18 20 	-4.69827e-19 	-3.07494e-19 20 	-2.48397e-18 	-1.47415e-18 20 	-2.48397e-18 	-1.47415e-18 20 	-2.48397e-18 	-1.47415e-18 20 	-2.48397e-18 	-1.47415e-18 20 	-7.44227e-19 	-2.31383e-19 20 	9.37815e-19 	1.56894e-19 20 	9.37815e-19 	1.56894e-19 20 	9.37815e-19 	1.56894e-19 20 	9.37815e-19 	1.56894e-19 20 	-8.10365e-19 	2.55862e-20 20 	-9.65129e-20 	7.74243e-19 20 	-9.65129e-20 	7.74243e-19 20 	-9.65129e-20 	7.74243e-19 20 	-9.65129e-20 	7.74243e-19 20 	-1.22966e-18 	8.78112e-19 20 	-3.04993e-18 	3.58194e-18 20 	-3.04993e-18 	3.58194e-18 20 	-3.04993e-18 	3.58194e-18 20 	-3.04993e-18 	3.58194e-18 20 	-1.37756e-18 	1.04213e-18 20 	-2.72384e-19 	2.41809e-18 20 	-2.72384e-19 	2.41809e-18 20 	-2.72384e-19 	2.41809e-18 20 	-2.72384e-19 	2.41809e-18 20 	-5.86613e-19 	2.24729e-19 20 	1.25211e-18 	5.60822e-19 20 	1.25211e-18 	5.60822e-19 20 	1.25211e-18 	5.60822e-19 20 	1.25211e-18 	5.60822e-19 20 	-2.10368e-19 	-1.94246e-19 20 	1.37661e-18 	1.05343e-18 20 	1.37661e-18 	1.05343e-18 20 	1.37661e-18 	1.05343e-18 20 	1.37661e-18 	1.05343e-18 20 	-2.92165e-19 	-9.78271e-20 20 	1.86132e-20 	9.11392e-19 20 	1.86132e-20 	9.11392e-19 20 	1.86132e-20 	9.11392e-19 20 	1.86132e-20 	9.11392e-19 20 	-4.59733e-19 	2.13467e-19 20 	-1.52261e-18 	3.14576e-19 20 	-1.52261e-18 	3.14576e-19 20 	-1.52261e-18 	3.14576e-19 20 	-1.52261e-18 	3.14576e-19 20 	-1.10439e-18 	3.02401e-19 20 	-2.15034e-16 	6.79663e-17 20 	-4.28474e-16 	1.35063e-16 20 	-6.41913e-16 	2.0216e-16 20 	-8.55352e-16 	2.69257e-16 20 	-1.02515e-15 	3.11351e-16
20 	-1.54628e-17 	4.86175e-17 20 	-1.56049e-17 	4.8261e-17 20 	-1.57469e-17 	4.79045e-17 20 	-1.5889e-17 	4.7548e-17 20 	-1.60311e-17 	4.71915e-17 20 	-1.61732e-17 	4.6835e-17 20 	8.07123e-17 	7.93178e-17 20 	8.07123e-17 	7.93178e-17 20 	8.07123e-17 	7.93178e-17 20 	8.07123e-17 	7.93178e-17 20 	-1.82206e-17 	5.18028e-17 20 	9.8013e-17 	6.61844e-17 20 	9.8013e-17 	6.61844e-17 20 	9.8013e-17 	6.61844e-17 20 	9.8013e-17 	6.61844e-17 20 	4.79299e-18 	3.36588e-17 20 	1.79717e-16 	5.6829e-17 20 	1.79717e-16 	5.6829e-17 20 	1.79717e-16 	5.6829e-17 20 	1.79717e-16 	5.6829e-17 20 	1.26212e-17 	-1.67447e-18 20 	7.1764e-17 	4.1114e-17 20 	7.1764e-17 	4.1114e-17 20 	7.1764e-17 	4.1114e-17 20 	7.1764e-17 	4.1114e-17 20 	-1.02541e-17 	-7.33113e-18 20 	-1.92126e-17 	-2.66227e-17 20 	-1.92126e-17 	-2.66227e-17 20 	-1.92126e-17 	-2.66227e-17 20 	-1.92126e-17 	-2.66227e-17 20 	-1.61047e-17 	-9.96738e-18 20 	-4.84463e-17 	-7.16346e-17 20 	-4.84463e-17 	-7.16346e-17 20 	-4.84463e-17 	-7.16346e-17 20 	-4.84463e-17 	-7.16346e-17 20 	-2.29496e-17 	-1.50201e-17 20 	-1.15432e-16 	-6.77919e-17 20 	-1.15432e-16 	-6.77919e-17 20 	-1.15432e-16 	-6.77919e-17 20 	-1.15432e-16 	-6.77919e-17 20 	-3.63532e-17 	-1.13024e-17 20 	3.98789e-17 	7.21836e-18 20 	3.98789e-17 	7.21836e-18 20 	3.98789e-17 	7.21836e-18 20 	3.98789e-17 	7.21836e-18 20 	-3.95838e-17 	1.24981e-18 20 	-8.55837e-18 	3.81717e-17 20 	-8.55837e-18 	3.81717e-17 20 	-8.55837e-18 	3.81717e-17 20 	-8.55837e-18 	3.81717e-17 20 	-6.0065e-17 	4.28931e-17 20 	-1.43306e-16 	1.66351e-16 20 	-1.43306e-16 	1.66351e-16 20 	-1.43306e-16 	1.66351e-16 20 	-1.43306e-16 	1.66351e-16 20 	-6.72896e-17 	5.09049e-17 20 	-1.43711e-17 	1.10676e-16 20 	-1.43711e-17 	1.10676e-16 20 	-1.43711e-17 	1.10676e-16 20 	-1.43711e-17 	1.10676e-16 20 	-2.86542e-17 	1.09773e-17 20 	5.62006e-17 	2.4833e-17 20 	5.62006e-17 	2.4833e-17 20 	5.62006e-17 	2.4833e-17 20 	5.62006e-17 	2.4833e-17 20 	-1.02758e-17 	-9.4883e-18 20 	6.15822e-17 	4.75514e-17 20 	6.15822e-17 	4.75514e-17 20 	6.15822e-17 	4.75514e-17 20 	6.15822e-17 	4.75514e-17 20 	-1.42714e-17 	-4.77855e-18 20 	-7.13517e-19 	4.21511e-17 20 	-7.13517e-19 	4.21511e-17 20 	-7.13517e-19 	4.21511e-17 20 	-7.13517e-19 	4.21511e-17 20 	-2.24565e-17 	1.04272e-17 20 	-7.29558e-17 	1.53248e-17 20 	-7.29558e-17 	1.53248e-17 20 	-7.29558e-17 	1.53248e-17 20 	-7.29558e-17 	1.53248e-17 20 	-5.3946e-17 	1.47713e-17 20 	-2.87243e-16 	1.06238e-16 20 	-5.00682e-16 	1.73335e-16 20 	-7.14122e-16 	2.40432e-16 20 	-9.27561e-16 	3.07529e-16 20 	-1.04348e-15 	3.0603e-16
20 	-3.13049e-17 	9.44937e-17 20 	-3.1447e-17 	9.41372e-17 20 	-3.15891e-17 	9.37807e-17 20 	-3.17312e-17 	9.34242e-17 20 	-3.18732e-17 	9.30677e-17 20 	-3.20153e-17 	9.27111e-17 20 	6.28647e-17 	1.3006e-16 20 	6.28647e-17 	1.3006e-16 20 	6.28647e-17 	1.3006e-16 20 	6.28647e-17 	1.3006e-16 20 	-3.60681e-17 	1.02545e-16 20 	1.02708e-16 	9.91542e-17 20 	1.02708e-16 	9.91542e-17 20 	1.02708e-16 	9.91542e-17 20 	1.02708e-16 	9.91542e-17 20 	9.48785e-18 	6.66285e-17 20 	1.92079e-16 	5.51888e-17 20 	1.92079e-16 	5.51888e-17 20 	1.92079e-16 	5.51888e-17 20 	1.92079e-16 	5.51888e-17 20 	2.49839e-17 	-3.31465e-18 20 	6.17199e-17 	3.3933e-17 20 	6.17199e-17 	3.3933e-17 20 	6.17199e-17 	3.3933e-17 20 	6.17199e-17 	3.3933e-17 20 	-2.02982e-17 	-1.45122e-17 20 	-3.49876e-17 	-3.6386e-17 20 	-3.49876e-17 	-3.6386e-17 20 	-3.49876e-17 	-3.6386e-17 20 	-3.49876e-17 	-3.6386e-17 20 	-3.18798e-17 	-1.97307e-17 20 	-7.09261e-17 	-8.63473e-17 20 	-7.09261e-17 	-8.63473e-17 20 	-7.09261e-17 	-8.63473e-17 20 	-7.09261e-17 	-8.63473e-17 20 	-4.54294e-17 	-2.97328e-17 20 	-1.51041e-16 	-7.88629e-17 20 	-1.51041e-16 	-7.88629e-17 20 	-1.51041e-16 	-7.88629e-17 20 	-1.51041e-16 	-7.88629e-17 20 	-7.19621e-17 	-2.23733e-17 20 	1.10547e-18 	8.44259e-18 20 	1.10547e-18 	8.44259e-18 20 	1.10547e-18 	8.44259e-18 20 	1.10547e-18 	8.44259e-18 20 	-7.83573e-17 	2.47403e-18 20 	-6.73937e-17 	8.01867e-17 20 	-6.73937e-17 	8.01867e-17 20 	-6.73937e-17 	8.01867e-17 20 	-6.73937e-17 	8.01867e-17 20 	-1.189e-16 	8.4908e-17 20 	-2.09218e-16 	2.16213e-16 20 	-2.09218e-16 	2.16213e-16 20 	-2.09218e-16 	2.16213e-16 20 	-2.09218e-16 	2.16213e-16 20 	-1.33202e-16 	1.00768e-16 20 	-4.24387e-17 	1.21428e-16 20 	-4.24387e-17 	1.21428e-16 20 	-4.24387e-17 	1.21428e-16 20 	-4.24387e-17 	1.21428e-16 20 	-5.67218e-17 	2.17299e-17 20 	4.61351e-17 	1.55389e-17 20 	4.61351e-17 	1.55389e-17 20 	4.61351e-17 	1.55389e-17 20 	4.61351e-17 	1.55389e-17 20 	-2.03412e-17 	-1.87824e-17 20 	4.7603e-17 	4.28707e-17 20 	4.7603e-17 	4.28707e-17 20 	4.7603e-17 	4.28707e-17 20 	4.7603e-17 	4.28707e-17 20 	-2.82506e-17 	-9.45927e-18 20 	-2.27103e-17 	5.23648e-17 20 	-2.27103e-17 	5.23648e-17 20 	-2.27103e-17 	5.23648e-17 20 	-2.27103e-17 	5.23648e-17 20 	-4.44533e-17 	2.06409e-17 20 	-1.25797e-16 	2.97937e-17 20 	-1.25797e-16 	2.97937e-17 20 	-1.25797e-16 	2.97937e-17 20 	-1.25797e-16 	2.97937e-17 20 	-1.06788e-16 	2.92403e-17 20 	-3.05579e-16 	1.00916e-16 20 	-5.19018e-16 	1.68013e-16 20 	-7.32457e-16 	2.3511e-16 20 	-9.45897e-16 	3.02207e-16 20 	-1.06182e-15 	3.00708e-16
20 	-4.7147e-17 	1.4037e-16 20 	-4.72891e-17 	1.40013e-16 20 	-4.74312e-17 	1.39657e-16 20 	-4.75733e-17 	1.393e-16 20 	-4.77154e-17 	1.38944e-16 20 	-4.78574e-17 	1.38587e-16 20 	4.50172e-17 	1.80802e-16 20 	4.50172e-17 	1.80802e-16 20 	4.50172e-17 	1.80802e-16 20 	4.50172e-17 	1.80802e-16 20 	-5.39157e-17 	1.53287e-16 20 	1.07403e-16 	1.32124e-16 20 	1.07403e-16 	1.32124e-16 20 	1.07403e-16 	1.32124e-16 20 	1.07403e-16 	1.32124e-16 20 	1.41827e-17 	9.95983e-17 20 	2.04442e-16 	5.35486e-17 20 	2.04442e-16 	5.35486e-17 20 	2.04442e-16 	5.35486e-17 20 	2.04442e-16 	5.35486e-17 20 	3.73467e-17 	-4.95484e-18 20 	5.16758e-17 	2.67519e-17 20 	5.16758e-17 	2.67519e-17 20 	5.16758e-17 	2.67519e-17 20 	5.16758e-17 	2.67519e-17 20 	-3.03423e-17 	-2.16932e-17 20 	-5.07627e-17 	-4.61493e-17 20 	-5.07627e-17 	-4.61493e-17 20 	-5.07627e-17 	-4.61493e-17 20 	-5.07627e-17 	-4.61493e-17 20 	-4.76548e-17 	-2.9494e-17 20 	-9.34058e-17 	-1.0106e-16 20 	-9.34058e-17 	-1.0106e-16 20 	-9.34058e-17 	-1.0106e-16 20 	-9.34058e-17 	-1.0106e-16 20 	-6.79091e-17 	-4.44454e-17 20 	-1.8665e-16 	-8.99339e-17 20 	-1.8665e-16 	-8.99339e-17 20 	-1.8665e-16 	-8.99339e-17 20 	-1.8665e-16 	-8.99339e-17 20 	-1.07571e-16 	-3.34443e-17 20 	-3.7668e-17 	9.66681e-18 20 	-3.7668e-17 	9.66681e-18 20 	-3.7668e-17 	9.66681e-18 20 	-3.7668e-17 	9.66681e-18 20 	-1.17131e-16 	3.69825e-18 20 	-1.26229e-16 	1.22202e-16 20 	-1.26229e-16 	1.22202e-16 20 	-1.26229e-16 	1.22202e-16 20 	-1.26229e-16 	1.22202e-16 20 	-1.77736e-16 	1.26923e-16 20 	-2.7513e-16 	2.66076e-16 20 	-2.7513e-16 	2.66076e-16 20 	-2.7513e-16 	2.66076e-16 20 	-2.7513e-16 	2.66076e-16 20 	-1.99114e-16 	1.50631e-16 20 	-7.05063e-17 	1.32181e-16 20 	-7.05063e-17 	1.32181e-16 20 	-7.05063e-17 	1.32181e-16 20 	-7.05063e-17 	1.32181e-16 20 	-8.47895e-17 	3.24825e-17 20 	3.60697e-17 	6.24485e-18 20 	3.60697e-17 	6.24485e-18 20 	3.60697e-17 	6.24485e-18 20 	3.60697e-17 	6.24485e-18 20 	-3.04067e-17 	-2.80764e-17 20 	3.36238e-17 	3.819e-17 20 	3.36238e-17 	3.819e-17 20 	3.36238e-17 	3.819e-17 20 	3.36238e-17 	3.819e-17 20 	-4.22298e-17 	-1.414e-17 20 	-4.47071e-17 	6.25785e-17 20 	-4.47071e-17 	6.25785e-17 20 	-4.47071e-17 	6.25785e-17 20 	-4.47071e-17 	6.25785e-17 20 	-6.64501e-17 	3.08546e-17 20 	-1.78639e-16 	4.42627e-17 20 	-1.78639e-16 	4.42627e-17 20 	-1.78639e-16 	4.42627e-17 20 	-1.78639e-16 	4.42627e-17 20 	-1.59629e-16 	4.37092e-17 20 	-3.23914e-16 	9.55951e-17 20 	-5.37354e-16 	1.62692e-16 20 	-7.50793e-16 	2.29789e-16 20 	-9.64232e-16 	2.96886e-16 20 	-1.08015e-15 	2.95387e-16
20 	-6.29891e-17 	1.86246e-16 20 	-6.31312e-17 	1.8589e-16 20 	-6.32733e-17 	1.85533e-16 20 	-6.34154e-17 	1.85176e-16 20 	-6.35575e-17 	1.8482e-16 20 	-6.36996e-17 	1.84463e-16 20 	2.76126e-17 	2.3047e-16 20 	2.71696e-17 	2.31545e-16 20 	2.71696e-17 	2.31545e-16 20 	2.71696e-17 	2.31545e-16 20 	-7.17633e-17 	2.0403e-16 20 	1.07118e-16 	1.6902e-16 20 	1.12098e-16 	1.65094e-16 20 	1.12098e-16 	1.65094e-16 20 	1.12098e-16 	1.65094e-16 20 	1.88776e-17 	1.32568e-16 20 	2.15111e-16 	5.95537e-17 20 	2.16805e-16 	5.19084e-17 20 	2.16805e-16 	5.19084e-17 20 	2.16805e-16 	5.19084e-17 20 	4.97095e-17 	-6.59503e-18 20 	4.65813e-17 	2.07948e-17 20 	4.16316e-17 	1.95709e-17 20 	4.16316e-17 	1.95709e-17 20 	4.16316e-17 	1.95709e-17 20 	-4.03865e-17 	-2.88743e-17 20 	-6.52718e-17 	-5.53422e-17 20 	-6.65377e-17 	-5.59126e-17 20 	-6.65377e-17 	-5.59126e-17 20 	-6.65377e-17 	-5.59126e-17 20 	-6.34299e-17 	-3.92574e-17 20 	-1.14405e-16 	-1.14679e-16 20 	-1.15886e-16 	-1.15773e-16 20 	-1.15886e-16 	-1.15773e-16 20 	-1.15886e-16 	-1.15773e-16 20 	-9.03889e-17 	-5.91581e-17 20 	-2.19359e-16 	-1.01809e-16 20 	-2.22259e-16 	-1.01005e-16 20 	-2.22259e-16 	-1.01005e-16 20 	-2.22259e-16 	-1.01005e-16 20 	-1.4318e-16 	-4.45153e-17 20 	-7.57424e-17 	8.17502e-18 20 	-7.64414e-17 	1.0891e-17 20 	-7.64414e-17 	1.0891e-17 20 	-7.64414e-17 	1.0891e-17 20 	-1.55904e-16 	4.92247e-18 20 	-1.80633e-16 	1.55206e-16 20 	-1.85064e-16 	1.64217e-16 20 	-1.85064e-16 	1.64217e-16 20 	-1.85064e-16 	1.64217e-16 20 	-2.36571e-16 	1.68938e-16 20 	-3.39479e-16 	3.14205e-16 20 	-3.41042e-16 	3.15939e-16 20 	-3.41042e-16 	3.15939e-16 20 	-3.41042e-16 	3.15939e-16 20 	-2.65026e-16 	2.00493e-16 20 	-1.06934e-16 	1.51573e-16 20 	-9.85739e-17 	1.42933e-16 20 	-9.85739e-17 	1.42933e-16 20 	-9.85739e-17 	1.42933e-16 20 	-1.12857e-16 	4.32351e-17 20 	2.20276e-17 	1.3791e-18 20 	2.60043e-17 	-3.0492e-18 20 	2.60043e-17 	-3.0492e-18 20 	2.60043e-17 	-3.0492e-18 20 	-4.04721e-17 	-3.73705e-17 20 	2.05091e-17 	3.24902e-17 20 	1.96446e-17 	3.35093e-17 20 	1.96446e-17 	3.35093e-17 20 	1.96446e-17 	3.35093e-17 20 	-5.6209e-17 	-1.88207e-17 20 	-6.49328e-17 	6.95021e-17 20 	-6.67039e-17 	7.27922e-17 20 	-6.67039e-17 	7.27922e-17 20 	-6.67039e-17 	7.27922e-17 20 	-8.84469e-17 	4.10684e-17 20 	-2.24667e-16 	5.77916e-17 20 	-2.31481e-16 	5.87316e-17 20 	-2.31481e-16 	5.87316e-17 20 	-2.31481e-16 	5.87316e-17 20 	-2.12471e-16 	5.81782e-17 20 	-3.49872e-16 	9.46454e-17 20 	-5.55689e-16 	1.57371e-16 20 	-7.69129e-16 	2.24468e-16 20 	-9.82568e-16 	2.91565e-16 20 	-1.09849e-15 	2.90066e-16
20 	-7.88312e-17 	2.32122e-16 20 	-7.89733e-17 	2.31766e-16 20 	-7.91154e-17 	2.31409e-16 20 	-7.92575e-17 	2.31053e-16 20 	-7.93996e-17 	2.30696e-16 20 	-7.95417e-17 	2.3034e-16 20 	1.17705e-17 	2.76346e-16 20 	9.32203e-18 	2.82287e-16 20 	9.32203e-18 	2.82287e-16 20 	9.32203e-18 	2.82287e-16 20 	-8.96108e-17 	2.54772e-16 20 	8.92704e-17 	2.19762e-16 20 	1.16792e-16 	1.98063e-16 20 	1.16792e-16 	1.98063e-16 20 	1.16792e-16 	1.98063e-16 20 	2.35725e-17 	1.65538e-16 20 	2.19806e-16 	9.25235e-17 20 	2.29168e-16 	5.02682e-17 20 	2.29168e-16 	5.02682e-17 20 	2.29168e-16 	5.02682e-17 20 	6.20722e-17 	-8.23522e-18 20 	5.89441e-17 	1.91546e-17 20 	3.15875e-17 	1.23898e-17 20 	3.15875e-17 	1.23898e-17 20 	3.15875e-17 	1.23898e-17 20 	-5.04306e-17 	-3.60553e-17 20 	-7.53159e-17 	-6.25233e-17 20 	-8.23128e-17 	-6.5676e-17 20 	-8.23128e-17 	-6.5676e-17 20 	-8.23128e-17 	-6.5676e-17 20 	-7.92049e-17 	-4.90207e-17 20 	-1.3018e-16 	-1.24443e-16 20 	-1.38365e-16 	-1.30485e-16 20 	-1.38365e-16 	-1.30485e-16 20 	-1.38365e-16 	-1.30485e-16 20 	-1.12869e-16 	-7.38707e-17 20 	-2.41839e-16 	-1.16522e-16 20 	-2.57868e-16 	-1.12076e-16 20 	-2.57868e-16 	-1.12076e-16 20 	-2.57868e-16 	-1.12076e-16 20 	-1.78789e-16 	-5.55862e-17 20 	-1.11351e-16 	-2.89595e-18 20 	-1.15215e-16 	1.21152e-17 20 	-1.15215e-16 	1.21152e-17 20 	-1.15215e-16 	1.21152e-17 20 	-1.94678e-16 	6.14669e-18 20 	-2.19406e-16 	1.5643e-16 20 	-2.439e-16 	2.06232e-16 20 	-2.439e-16 	2.06232e-16 20 	-2.439e-16 	2.06232e-16 20 	-2.95406e-16 	2.10953e-16 20 	-3.98314e-16 	3.5622e-16 20 	-4.06954e-16 	3.65802e-16 20 	-4.06954e-16 	3.65802e-16 20 	-4.06954e-16 	3.65802e-16 20 	-3.30938e-16 	2.50356e-16 20 	-1.72846e-16 	2.01436e-16 20 	-1.26642e-16 	1.53686e-16 20 	-1.26642e-16 	1.53686e-16 20 	-1.26642e-16 	1.53686e-16 20 	-1.40925e-16 	5.39877e-17 20 	-6.04005e-18 	1.21317e-17 20 	1.59388e-17 	-1.23433e-17 20 	1.59388e-17 	-1.23433e-17 20 	1.59388e-17 	-1.23433e-17 20 	-5.05376e-17 	-4.66645e-17 20 	1.04437e-17 	2.31961e-17 20 	5.66536e-18 	2.88285e-17 20 	5.66536e-18 	2.88285e-17 20 	5.66536e-18 	2.88285e-17 20 	-7.01882e-17 	-2.35014e-17 20 	-7.8912e-17 	6.48213e-17 20 	-8.87007e-17 	8.3006e-17 20 	-8.87007e-17 	8.3006e-17 20 	-8.87007e-17 	8.3006e-17 20 	-1.10444e-16 	5.12821e-17 20 	-2.46664e-16 	6.80053e-17 20 	-2.84322e-16 	7.32005e-17 20 	-2.84322e-16 	7.32005e-17 20 	-2.84322e-16 	7.32005e-17 20 	-2.65312e-16 	7.26471e-17 20 	-4.02714e-16 	1.09114e-16 20 	-5.74025e-16 	1.52049e-16 20 	-7.87464e-16 	2.19146e-16 20 	-1.0009e-15 	2.86243e-16 20 	-1.11683e-15 	2.84744e-16
20 	-9.46733e-17 	2.77998e-16 20 	-9.48154e-17 	2.77642e-16 20 	-9.49575e-17 	2.77285e-16 20 	-9.50996e-17 	2.76929e-16 20 	-9.52417e-17 	2.76572e-16 20 	-9.53838e-17 	2.76216e-16 20 	-4.07163e-18 	3.22222e-16 20 	-8.52553e-18 	3.33029e-16 20 	-8.52553e-18 	3.33029e-16 20 	-8.52553e-18 	3.33029e-16 20 	-1.07458e-16 	3.05514e-16 20 	7.14228e-17 	2.70504e-16 20 	1.21487e-16 	2.31033e-16 20 	1.21487e-16 	2.31033e-16 20 	1.21487e-16 	2.31033e-16 20 	2.82673e-17 	1.98507e-16 20 	2.24501e-16 	1.25493e-16 20 	2.4153e-16 	4.8628e-17 20 	2.4153e-16 	4.8628e-17 20 	2.4153e-16 	4.8628e-17 20 	7.4435e-17 	-9.8754e-18 20 	7.13069e-17 	1.75145e-17 20 	2.15433e-17 	5.20875e-18 20 	2.15433e-17 	5.20875e-18 20 	2.15433e-17 	5.20875e-18 20 	-6.04748e-17 	-4.32364e-17 20 	-8.536e-17 	-6.97043e-17 20 	-9.80878e-17 	-7.54393e-17 20 	-9.80878e-17 	-7.54393e-17 20 	-9.80878e-17 	-7.54393e-17 20 	-9.498e-17 	-5.8784e-17 20 	-1.45955e-16 	-1.34206e-16 20 	-1.60845e-16 	-1.45198e-16 20 	-1.60845e-16 	-1.45198e-16 20 	-1.60845e-16 	-1.45198e-16 20 	-1.35348e-16 	-8.85834e-17 20 	-2.64319e-16 	-1.31235e-16 20 	-2.93477e-16 	-1.23147e-16 20 	-2.93477e-16 	-1.23147e-16 20 	-2.93477e-16 	-1.23147e-16 20 	-2.14398e-16 	-6.66572e-17 20 	-1.4696e-16 	-1.39669e-17 20 	-1.53988e-16 	1.33395e-17 20 	-1.53988e-16 	1.33395e-17 20 	-1.53988e-16 	1.33395e-17 20 	-2.33451e-16 	7.37091e-18 20 	-2.58179e-16 	1.57654e-16 20 	-3.02735e-16 	2.48246e-16 20 	-3.02735e-16 	2.48246e-16 20 	-3.02735e-16 	2.48246e-16 20 	-3.54241e-16 	2.52968e-16 20 	-4.5715e-16 	3.98235e-16 20 	-4.72866e-16 	4.15665e-16 20 	-4.72866e-16 	4.15665e-16 20 	-4.72866e-16 	4.15665e-16 20 	-3.9685e-16 	3.00219e-16 20 	-2.38758e-16 	2.51299e-16 20 	-1.54709e-16 	1.64439e-16 20 	-1.54709e-16 	1.64439e-16 20 	-1.54709e-16 	1.64439e-16 20 	-1.68992e-16 	6.47402e-17 20 	-3.41077e-17 	2.28843e-17 20 	5.87338e-18 	-2.16373e-17 20 	5.87338e-18 	-2.16373e-17 20 	5.87338e-18 	-2.16373e-17 20 	-6.0603e-17 	-5.59586e-17 20 	3.78238e-19 	1.39021e-17 20 	-8.31385e-18 	2.41478e-17 20 	-8.31385e-18 	2.41478e-17 20 	-8.31385e-18 	2.41478e-17 20 	-8.41674e-17 	-2.81822e-17 20 	-9.28912e-17 	6.01406e-17 20 	-1.10697e-16 	9.32197e-17 20 	-1.10697e-16 	9.32197e-17 20 	-1.10697e-16 	9.32197e-17 20 	-1.3244e-16 	6.14958e-17 20 	-2.68661e-16 	7.82191e-17 20 	-3.37164e-16 	8.76695e-17 20 	-3.37164e-16 	8.76695e-17 20 	-3.37164e-16 	8.76695e-17 20 	-3.18154e-16 	8.7116e-17 20 	-4.55556e-16 	1.23583e-16 20 	-5.92361e-16 	1.46728e-16 20 	-8.058e-16 	2.13825e-16 20 	-1.01924e-15 	2.80922e-16 20 	-1.13516e-15 	2.79423e-16