# vtk DataFile Version 2.0
sampleSurface
ASCII
DATASET POLYDATA
POINTS 349 double
0 0 0
-0.5 -5.55112e-17 0.5
0.5 0 0.5
-1 0 0
0 0 1
1 0 0
-1 0 1
1 0 1
-0.5 0 1.5
-1.5 0 0.5
1.5 0 0.5
0.5 0 1.5
-2 0 0
2 0 0
0 0 2
1.5 0 1.5
-1.5 0 1.5
2 0 1
-2 0 1
-1 0 2
1 0 2
-0.5 0 2.5
-2.5 0 0.5
2.5 5.55112e-17 0.5
0.5 5.55112e-17 2.5
2 0 2
-2 0 2
2.5 0 1.5
1.5 2.77556e-17 2.5
-2.5 0 1.5
-1.5 0 2.5
-3 0 0
3 0 0
0 0 3
-3 0 1
3 0 1
-1 0 3
1 0 3
-3.5 0 0.5
3.5 0 0.5
-2.5 0 2.5
2.5 0 2.5
-0.5 0 3.5
0.5 0 3.5
-3 0 2
3 0 2
-2 0 3
2 0 3
3.5 0 1.5
-3.5 0 1.5
-1.5 0 3.5
1.5 0 3.5
-4 0 0
4 0 0
0 0 4
-4 0 1
4 0 1
-1 0 4
1 0 4
-3 0 3
3 0 3
-3.5 0 2.5
3.5 0 2.5
-2.5 0 3.5
2.5 0 3.5
-4 0 2
4 0 2
-2 0 4
2 0 4
-4.5 0 0.5
4.5 0 0.5
-0.5 0 4.5
0.5 0 4.5
-4.5 5.55112e-17 1.5
4.5 0 1.5
-1.5 0 4.5
1.5 0 4.5
-3.5 0 3.5
3.5 0 3.5
-5 0 0
5 0 0
-4 0 3
4 0 3
-3 0 4
3 0 4
0 0 5
-5 0 1
5 0 1
-1 0 5
1 0 5
-4.5 -5.55112e-17 2.5
4.5 0 2.5
-2.5 0 4.5
2.5 0 4.5
-5 0 2
5 0 2
-2 0 5
2 0 5
5.5 0 0.5
-0.5 0 5.5
0.5 0 5.5
-4 0 4
4 0 4
5.5 0 1.5
-4.5 0 3.5
4.5 0 3.5
-3.5 0 4.5
3.5 0 4.5
-1.5 0 5.5
1.5 0 5.5
-5 0 3
5 0 3
-3 0 5
3 0 5
6 0 0
0 0 6
5.5 0 2.5
-2.5 0 5.5
2.5 0 5.5
6 0 1
-1 0 6
1 0 6
6 0 2
-2 0 6
2 0 6
-4.5 0 4.5
4.5 0 4.5
-5 0 4
5 0 4
-4 0 5
4 0 5
6.5 0 0.5
5.5 0 3.5
-3.5 0 5.5
3.5 0 5.5
-0.5 0 6.5
0.5 5.55112e-17 6.5
6.5 0 1.5
-1.5 0 6.5
1.5 0 6.5
6 0 3
-3 0 6
3 0 6
2.5 0 6.5
6.5 0 2.5
-2.5 0 6.5
7 0 0
0 0 7
7 0 1
-5 0 5
5 0 5
-1 0 7
1 0 7
5.5 0 4.5
-4.5 0 5.5
4.5 0 5.5
6 0 4
-4 0 6
4 0 6
7 0 2
-2 0 7
2 0 7
6.5 0 3.5
-3.5 0 6.5
3.5 0 6.5
7.5 0 0.5
-0.5 0 7.5
0.5 0 7.5
7 0 3
-3 0 7
3 0 7
7.5 0 1.5
-1.5 0 7.5
1.5 0 7.5
5.5 0 5.5
6 0 5
-5 0 6
5 0 6
7.5 0 2.5
6.5 0 4.5
-4.5 0 6.5
4.5 0 6.5
-2.5 0 7.5
2.5 0 7.5
8 0 0
0 0 8
8 0 1
7 0 4
-4 0 7
4 0 7
-1 0 8
1 0 8
8 0 2
-2 0 8
2 0 8
7.5 0 3.5
-3.5 0 7.5
3.5 0 7.5
6 0 6
8.5 0 0.5
6.5 0 5.5
5.5 0 6.5
8 0 3
-3 0 8
3 0 8
7 0 5
-5 0 7
5 0 7
8.5 0 1.5
7.5 0 4.5
-4.5 0 7.5
4.5 0 7.5
8.5 0 2.5
8 0 4
-4 0 8
4 0 8
9 0 0
9 0 1
8.5 0 3.5
6.5 0 6.5
9 0 2
7 0 6
6 0 7
7.5 0 5.5
5.5 0 7.5
8 0 5
-5 0 8
5 0 8
9 0 3
9.5 0 0.5
9.5 0 1.5
8.5 0 4.5
9.5 0 2.5
9 0 4
7 0 7
7.5 0 6.5
6.5 0 7.5
10 0 0
8 0 6
6 0 8
10 0 1
9.5 0 3.5
8.5 0 5.5
10 0 2
9 0 5
10 0 3
10.5 0 0.5
9.5 0 4.5
10.5 0 1.5
7.5 0 7.5
8 0 7
7 0 8
8.5 0 6.5
10 0 4
10.5 0 2.5
9 0 6
9.5 0 5.5
11 0 0
11 0 1
10.5 0 3.5
11 0 2
10 0 5
8 0 8
8.5 0 7.5
11 0 3
9 0 7
10.5 0 4.5
11.5 0 0.5
9.5 0 6.5
11.5 0 1.5
10 0 6
11 0 4
11.5 0 2.5
10.5 0 5.5
12 0 0
11.5 0 3.5
12 0 1
9 0 8
11 0 5
9.5 0 7.5
12 0 2
10 0 7
11.5 0 4.5
10.5 0 6.5
12 0 3
12.5 0 0.5
11 0 6
12.5 0 1.5
12 0 4
12.5 0 2.5
11.5 0 5.5
10 0 8
10.5 0 7.5
12.5 0 3.5
13 0 0
12 0 5
13 0 1
11 0 7
13 0 2
11.5 5.55112e-17 6.5
12.5 0 4.5
13 0 3
12 0 6
13.5 0 0.5
13.5 0 1.5
13 0 4
11 0 8
12.5 0 5.5
13.5 0 2.5
11.5 0 7.5
12 0 7
13 0 5
13.5 0 3.5
14 0 0
14 0 1
12.5 0 6.5
14 0 2
13.5 0 4.5
14 0 3
13 0 6
12 0 8
14.5 0 0.5
14 0 4
14.5 0 1.5
13.5 0 5.5
12.5 0 7.5
14.5 0 2.5
13 0 7
14 0 5
14.5 0 3.5
13.5 0 6.5
15 0 0
15 0 1
15 0 2
14.5 0 4.5
14 0 6
13 0 8
15 0 3
13.5 5.55112e-17 7.5
14.5 0 5.5
15 0 4
14 0 7
15 0 5
14.5 -5.55112e-17 6.5
14 0 8
15 0 6
14.5 5.55112e-17 7.5
15 0 7
15 0 8

POLYGONS 640 2560
3 79 86 69
3 86 55 69
3 55 52 69
3 52 79 69
3 52 55 38
3 55 34 38
3 34 31 38
3 31 52 38
3 31 34 22
3 34 18 22
3 18 12 22
3 12 31 22
3 12 18 9
3 18 6 9
3 6 3 9
3 3 12 9
3 3 6 1
3 6 4 1
3 4 0 1
3 0 3 1
3 0 4 2
3 4 7 2
3 7 5 2
3 5 0 2
3 5 7 10
3 7 17 10
3 17 13 10
3 13 5 10
3 13 17 23
3 17 35 23
3 35 32 23
3 32 13 23
3 32 35 39
3 35 56 39
3 56 53 39
3 53 32 39
3 53 56 70
3 56 87 70
3 87 80 70
3 80 53 70
3 80 87 98
3 87 119 98
3 119 114 98
3 114 80 98
3 114 119 131
3 119 148 131
3 148 146 131
3 146 114 131
3 146 148 165
3 148 186 165
3 186 184 165
3 184 146 165
3 184 186 199
3 186 217 199
3 217 216 199
3 216 184 199
3 216 217 229
3 217 240 229
3 240 237 229
3 237 216 229
3 237 240 246
3 240 258 246
3 258 257 246
3 257 237 246
3 257 258 267
3 258 276 267
3 276 274 267
3 274 257 267
3 274 276 285
3 276 296 285
3 296 294 285
3 294 274 285
3 294 296 303
3 296 314 303
3 314 313 303
3 313 294 303
3 313 314 321
3 314 332 321
3 332 331 321
3 331 313 321
3 86 94 73
3 94 65 73
3 65 55 73
3 55 86 73
3 55 65 49
3 65 44 49
3 44 34 49
3 34 55 49
3 34 44 29
3 44 26 29
3 26 18 29
3 18 34 29
3 18 26 16
3 26 19 16
3 19 6 16
3 6 18 16
3 6 19 8
3 19 14 8
3 14 4 8
3 4 6 8
3 4 14 11
3 14 20 11
3 20 7 11
3 7 4 11
3 7 20 15
3 20 25 15
3 25 17 15
3 17 7 15
3 17 25 27
3 25 45 27
3 45 35 27
3 35 17 27
3 35 45 48
3 45 66 48
3 66 56 48
3 56 35 48
3 56 66 74
3 66 95 74
3 95 87 74
3 87 56 74
3 87 95 103
3 95 122 103
3 122 119 103
3 119 87 103
3 119 122 137
3 122 159 137
3 159 148 137
3 148 119 137
3 148 159 171
3 159 192 171
3 192 186 171
3 186 148 171
3 186 192 208
3 192 220 208
3 220 217 208
3 217 186 208
3 217 220 230
3 220 243 230
3 243 240 230
3 240 217 230
3 240 243 248
3 243 260 248
3 260 258 248
3 258 240 248
3 258 260 269
3 260 280 269
3 280 276 269
3 276 258 269
3 276 280 287
3 280 298 287
3 298 296 287
3 296 276 287
3 296 298 304
3 298 316 304
3 316 314 304
3 314 296 304
3 314 316 323
3 316 333 323
3 333 332 323
3 332 314 323
3 94 110 90
3 110 81 90
3 81 65 90
3 65 94 90
3 65 81 61
3 81 59 61
3 59 44 61
3 44 65 61
3 44 59 40
3 59 46 40
3 46 26 40
3 26 44 40
3 26 46 30
3 46 36 30
3 36 19 30
3 19 26 30
3 19 36 21
3 36 33 21
3 33 14 21
3 14 19 21
3 14 33 24
3 33 37 24
3 37 20 24
3 20 14 24
3 20 37 28
3 37 47 28
3 47 25 28
3 25 20 28
3 25 47 41
3 47 60 41
3 60 45 41
3 45 25 41
3 45 60 62
3 60 82 62
3 82 66 62
3 66 45 62
3 66 82 91
3 82 111 91
3 111 95 91
3 95 66 91
3 95 111 116
3 111 140 116
3 140 122 116
3 122 95 116
3 122 140 144
3 140 168 144
3 168 159 144
3 159 122 144
3 159 168 178
3 168 202 178
3 202 192 178
3 192 159 178
3 192 202 212
3 202 228 212
3 228 220 212
3 220 192 212
3 220 228 232
3 228 245 232
3 245 243 232
3 243 220 232
3 243 245 254
3 245 264 254
3 264 260 254
3 260 243 254
3 260 264 272
3 264 284 272
3 284 280 272
3 280 260 272
3 280 284 289
3 284 301 289
3 301 298 289
3 298 280 289
3 298 301 308
3 301 318 308
3 318 316 308
3 316 298 308
3 316 318 326
3 318 337 326
3 337 333 326
3 333 316 326
3 110 127 104
3 127 101 104
3 101 81 104
3 81 110 104
3 81 101 77
3 101 83 77
3 83 59 77
3 59 81 77
3 59 83 63
3 83 67 63
3 67 46 63
3 46 59 63
3 46 67 50
3 67 57 50
3 57 36 50
3 36 46 50
3 36 57 42
3 57 54 42
3 54 33 42
3 33 36 42
3 33 54 43
3 54 58 43
3 58 37 43
3 37 33 43
3 37 58 51
3 58 68 51
3 68 47 51
3 47 37 51
3 47 68 64
3 68 84 64
3 84 60 64
3 60 47 64
3 60 84 78
3 84 102 78
3 102 82 78
3 82 60 78
3 82 102 105
3 102 128 105
3 128 111 105
3 111 82 105
3 111 128 132
3 128 156 132
3 156 140 132
3 140 111 132
3 140 156 162
3 156 187 162
3 187 168 162
3 168 140 162
3 168 187 195
3 187 213 195
3 213 202 195
3 202 168 195
3 202 213 218
3 213 233 218
3 233 228 218
3 228 202 218
3 228 233 241
3 233 253 241
3 253 245 241
3 245 228 241
3 245 253 259
3 253 271 259
3 271 264 259
3 264 245 259
3 264 271 275
3 271 288 275
3 288 284 275
3 284 264 275
3 284 288 293
3 288 305 293
3 305 301 293
3 301 284 293
3 301 305 312
3 305 322 312
3 322 318 312
3 318 301 312
3 318 322 329
3 322 340 329
3 340 337 329
3 337 318 329
3 127 149 125
3 149 129 125
3 129 101 125
3 101 127 125
3 101 129 106
3 129 112 106
3 112 83 106
3 83 101 106
3 83 112 92
3 112 96 92
3 96 67 92
3 67 83 92
3 67 96 75
3 96 88 75
3 88 57 75
3 57 67 75
3 57 88 71
3 88 85 71
3 85 54 71
3 54 57 71
3 54 85 72
3 85 89 72
3 89 58 72
3 58 54 72
3 58 89 76
3 89 97 76
3 97 68 76
3 68 58 76
3 68 97 93
3 97 113 93
3 113 84 93
3 84 68 93
3 84 113 107
3 113 130 107
3 130 102 107
3 102 84 107
3 102 130 126
3 130 150 126
3 150 128 126
3 128 102 126
3 128 150 153
3 150 175 153
3 175 156 153
3 156 128 153
3 156 175 179
3 175 205 179
3 205 187 179
3 187 156 179
3 187 205 209
3 205 225 209
3 225 213 209
3 213 187 209
3 213 225 231
3 225 244 231
3 244 233 231
3 233 213 231
3 233 244 247
3 244 261 247
3 261 253 247
3 253 233 247
3 253 261 266
3 261 278 266
3 278 271 266
3 271 253 266
3 271 278 282
3 278 295 282
3 295 288 282
3 288 271 282
3 288 295 300
3 295 311 300
3 311 305 300
3 305 288 300
3 305 311 317
3 311 328 317
3 328 322 317
3 322 305 317
3 322 328 334
3 328 342 334
3 342 340 334
3 340 322 334
3 149 176 154
3 176 157 154
3 157 129 154
3 129 149 154
3 129 157 133
3 157 141 133
3 141 112 133
3 112 129 133
3 112 141 117
3 141 123 117
3 123 96 117
3 96 112 117
3 96 123 108
3 123 120 108
3 120 88 108
3 88 96 108
3 88 120 99
3 120 115 99
3 115 85 99
3 85 88 99
3 85 115 100
3 115 121 100
3 121 89 100
3 89 85 100
3 89 121 109
3 121 124 109
3 124 97 109
3 97 89 109
3 97 124 118
3 124 142 118
3 142 113 118
3 113 97 118
3 113 142 134
3 142 158 134
3 158 130 134
3 130 113 134
3 130 158 155
3 158 177 155
3 177 150 155
3 150 130 155
3 150 177 174
3 177 198 174
3 198 175 174
3 175 150 174
3 175 198 200
3 198 221 200
3 221 205 200
3 205 175 200
3 205 221 223
3 221 238 223
3 238 225 223
3 225 205 223
3 225 238 242
3 238 255 242
3 255 244 242
3 244 225 242
3 244 255 256
3 255 270 256
3 270 261 256
3 261 244 256
3 261 270 273
3 270 286 273
3 286 278 273
3 278 261 273
3 278 286 290
3 286 302 290
3 302 295 290
3 295 278 290
3 295 302 307
3 302 319 307
3 319 311 307
3 311 295 307
3 311 319 324
3 319 335 324
3 335 328 324
3 328 311 324
3 328 335 339
3 335 345 339
3 345 342 339
3 342 328 339
3 176 206 180
3 206 188 180
3 188 157 180
3 157 176 180
3 157 188 163
3 188 169 163
3 169 141 163
3 141 157 163
3 141 169 145
3 169 160 145
3 160 123 145
3 123 141 145
3 123 160 138
3 160 151 138
3 151 120 138
3 120 123 138
3 120 151 135
3 151 147 135
3 147 115 135
3 115 120 135
3 115 147 136
3 147 152 136
3 152 121 136
3 121 115 136
3 121 152 139
3 152 161 139
3 161 124 139
3 124 121 139
3 124 161 143
3 161 170 143
3 170 142 143
3 142 124 143
3 142 170 164
3 170 189 164
3 189 158 164
3 158 142 164
3 158 189 181
3 189 207 181
3 207 177 181
3 177 158 181
3 177 207 201
3 207 222 201
3 222 198 201
3 198 177 201
3 198 222 219
3 222 234 219
3 234 221 219
3 221 198 219
3 221 234 235
3 234 250 235
3 250 238 235
3 238 221 235
3 238 250 252
3 250 265 252
3 265 255 252
3 255 238 252
3 255 265 268
3 265 281 268
3 281 270 268
3 270 255 268
3 270 281 283
3 281 297 283
3 297 286 283
3 286 270 283
3 286 297 299
3 297 310 299
3 310 302 299
3 302 286 299
3 302 310 315
3 310 327 315
3 327 319 315
3 319 302 315
3 319 327 330
3 327 341 330
3 341 335 330
3 335 319 330
3 335 341 343
3 341 347 343
3 347 345 343
3 345 335 343
3 206 226 210
3 226 214 210
3 214 188 210
3 188 206 210
3 188 214 196
3 214 203 196
3 203 169 196
3 169 188 196
3 169 203 182
3 203 193 182
3 193 160 182
3 160 169 182
3 160 193 172
3 193 190 172
3 190 151 172
3 151 160 172
3 151 190 166
3 190 185 166
3 185 147 166
3 147 151 166
3 147 185 167
3 185 191 167
3 191 152 167
3 152 147 167
3 152 191 173
3 191 194 173
3 194 161 173
3 161 152 173
3 161 194 183
3 194 204 183
3 204 170 183
3 170 161 183
3 170 204 197
3 204 215 197
3 215 189 197
3 189 170 197
3 189 215 211
3 215 227 211
3 227 207 211
3 207 189 211
3 207 227 224
3 227 239 224
3 239 222 224
3 222 207 224
3 222 239 236
3 239 251 236
3 251 234 236
3 234 222 236
3 234 251 249
3 251 262 249
3 262 250 249
3 250 234 249
3 250 262 263
3 262 277 263
3 277 265 263
3 265 250 263
3 265 277 279
3 277 291 279
3 291 281 279
3 281 265 279
3 281 291 292
3 291 306 292
3 306 297 292
3 297 281 292
3 297 306 309
3 306 320 309
3 320 310 309
3 310 297 309
3 310 320 325
3 320 336 325
3 336 327 325
3 327 310 325
3 327 336 338
3 336 344 338
3 344 341 338
3 341 327 338
3 341 344 346
3 344 348 346
3 348 347 346
3 347 341 346
POINT_DATA 349
FIELD attributes 1
U 3 349 float
20 0 0
20 -1.11538e-15 1.28192e-15
20 -2.2437e-16 1.1125e-15
20 0 0
20 -5.51652e-16 9.95994e-16
20 0 0
20 -8.25422e-16 2.53595e-16
20 -1.13876e-16 1.15727e-15
20 -5.07837e-16 7.8661e-16
20 -8.74964e-16 -1.49e-16
20 5.98987e-16 8.88245e-16
20 -3.59024e-16 8.02944e-16
20 0 0
20 0 0
20 2.62868e-17 9.62307e-16
20 -4.71095e-16 1.82539e-15
20 -8.03508e-16 -9.05153e-16
20 2.11634e-16 9.18294e-16
20 -8.17145e-16 -2.71506e-16
20 -3.06987e-16 3.61517e-17
20 1.41546e-16 1.60883e-15
20 1.38661e-17 3.91758e-16
20 -7.91085e-16 3.29979e-16
20 3.03243e-16 2.6107e-16
20 9.58142e-16 1.86791e-15
20 1.61985e-16 1.3796e-15
20 -4.54806e-16 -3.49728e-16
20 4.15402e-16 6.98468e-16
20 4.38161e-16 1.93906e-15
20 -7.99025e-16 -3.61849e-16
20 6.95314e-17 -1.28608e-16
20 0 0
20 0 0
20 2.33144e-16 9.9656e-16
20 -6.58566e-16 1.59107e-16
20 1.69197e-16 4.03562e-16
20 1.70138e-16 3.76459e-16
20 3.84875e-16 1.25476e-15
20 -1.11111e-16 7.04655e-16
20 4.90568e-16 3.46473e-16
20 -2.86221e-16 -3.29999e-18
20 2.6547e-16 1.05549e-15
20 5.84538e-17 7.65054e-16
20 -9.78864e-17 9.61515e-16
20 -6.53081e-16 -2.07309e-16
20 1.23692e-16 5.66039e-16
20 -1.11901e-16 5.90004e-17
20 2.71407e-16 9.41418e-16
20 -5.32425e-16 3.08236e-16
20 -9.33041e-16 -3.63558e-17
20 5.38702e-16 4.77632e-16
20 2.41083e-16 2.50569e-16
20 0 0
20 0 0
20 -4.73561e-17 8.26669e-18
20 -1.41636e-16 3.55189e-16
20 -9.09393e-17 7.24692e-17
20 3.27939e-16 2.40309e-16
20 -1.01255e-17 -8.98501e-17
20 -7.00524e-16 -9.92888e-17
20 3.67778e-16 4.73257e-16
20 -5.94038e-16 -4.2773e-16
20 3.4632e-16 2.01964e-16
20 -7.69616e-16 -1.09722e-16
20 1.40914e-16 5.20561e-16
20 -3.96896e-16 -2.30116e-16
20 -1.79818e-16 1.96681e-16
20 8.72389e-18 6.99356e-17
20 1.88341e-16 1.25373e-16
20 3.32075e-16 5.90168e-16
20 3.51652e-16 -7.35993e-17
20 1.81172e-16 -4.44332e-16
20 -3.31164e-16 -1.24917e-15
20 1.45534e-16 1.6229e-16
20 -6.73552e-16 -2.91233e-16
20 5.33427e-16 1.62882e-16
20 1.47465e-16 -3.22315e-16
20 -1.15222e-15 1.43597e-16
20 7.1841e-16 1.15013e-16
20 0 0
20 0 0
20 -5.80711e-16 -2.01807e-16
20 3.47189e-16 3.60114e-16
20 -8.0894e-16 1.8483e-16
20 1.51911e-16 6.35987e-17
20 1.71628e-16 -7.87579e-16
20 0 0
20 -3.62244e-16 -3.59685e-16
20 2.85786e-16 -1.24316e-16
20 3.84849e-16 -8.9669e-16
20 -2.0604e-16 -6.18667e-16
20 1.40384e-16 5.67758e-16
20 -2.67618e-16 -2.5105e-16
20 2.23902e-16 5.26767e-17
20 0 0
20 -3.82774e-16 1.39111e-16
20 3.04871e-17 1.5103e-16
20 5.48505e-16 -5.03018e-16
20 -4.30861e-16 -4.11417e-16
20 1.09722e-16 -3.62257e-16
20 7.26783e-16 -1.09456e-15
20 -6.89546e-16 4.01593e-16
20 -2.14986e-16 -1.38143e-17
20 -6.96216e-16 -6.62489e-16
20 -3.70541e-16 9.55728e-17
20 1.83642e-16 5.55721e-16
20 -1.0463e-15 9.56494e-16
20 -4.75583e-16 -4.33856e-16
20 3.18825e-16 1.46443e-16
20 9.96312e-16 -9.20718e-16
20 0 0
20 -1.28053e-16 6.75846e-16
20 -6.17715e-16 3.12689e-16
20 2.74377e-16 -5.42288e-16
20 0 0
20 3.99903e-16 -1.14506e-15
20 -3.01712e-16 9.4241e-16
20 -4.62686e-16 5.45844e-16
20 8.26341e-16 -8.21716e-16
20 -8.51581e-16 -9.45088e-16
20 5.8995e-17 -4.01801e-16
20 6.57859e-16 -1.45932e-15
20 -7.30042e-16 -2.40247e-16
20 -2.8509e-16 1.96181e-16
20 5.77877e-16 -1.1143e-15
20 -1.89116e-16 4.10706e-16
20 -1.28641e-15 -2.92135e-16
20 0 0
20 -7.83456e-16 1.1977e-16
20 -4.00798e-16 1.48197e-16
20 -4.74003e-16 -5.72495e-16
20 -1.21361e-15 -1.12481e-15
20 -5.34525e-16 6.37496e-16
20 -6.94252e-16 -5.33398e-19
20 5.22848e-16 -9.66258e-16
20 2.70601e-16 -1.27766e-15
20 4.92505e-16 -1.84576e-15
20 -1.06564e-15 -1.58163e-15
20 -4.63167e-16 -1.13729e-16
20 4.15836e-16 -1.97626e-15
20 -7.25203e-16 5.15431e-16
20 -7.13878e-16 5.45869e-17
20 2.02269e-16 -6.99279e-16
20 7.30185e-17 -7.38517e-16
20 -8.56596e-16 3.40723e-16
20 -5.3333e-16 2.06168e-16
20 0 0
20 5.22922e-16 -1.30519e-15
20 -1.42552e-15 -1.26475e-15
20 0 0
20 -1.07712e-15 -3.43144e-16
20 -4.32513e-17 -6.32453e-16
20 5.60483e-16 -1.34211e-15
20 -1.49653e-15 -4.22004e-16
20 3.26479e-16 -7.73881e-16
20 -6.56861e-16 -5.97729e-16
20 -1.27305e-15 2.34273e-18
20 -3.1978e-16 -5.10913e-16
20 -3.78257e-16 -5.20447e-16
20 -1.10637e-15 -5.02385e-16
20 -6.31897e-16 6.2664e-17
20 1.36557e-16 -8.19091e-16
20 -1.20798e-15 1.41093e-16
20 -1.16524e-15 -5.3313e-16
20 -6.1313e-16 -2.70624e-16
20 -1.66201e-15 -9.98044e-16
20 3.64771e-16 -1.11101e-15
20 9.63812e-16 -9.86316e-16
20 -9.43814e-16 2.45364e-16
20 -1.07087e-15 9.46499e-17
20 -2.52774e-16 -1.45594e-16
20 -1.76082e-15 -1.35452e-15
20 -3.4521e-16 -2.74135e-17
20 3.6978e-16 -5.60115e-16
20 -8.68661e-16 -6.07093e-17
20 -1.19643e-15 -1.86729e-16
20 0 0
20 -7.05103e-16 -3.18776e-16
20 -7.42416e-16 5.85885e-16
20 -1.85319e-15 -3.47214e-16
20 2.53895e-16 -7.36108e-16
20 -7.65887e-16 -2.47177e-16
20 -1.18588e-15 1.85631e-16
20 -3.12406e-16 -1.4686e-18
20 0 0
20 6.64292e-16 0
20 -1.79635e-15 -1.3251e-15
20 -1.49732e-15 -2.41076e-16
20 -6.68924e-16 -1.37674e-16
20 -4.59321e-16 7.58159e-17
20 9.7806e-18 0
20 6.66796e-16 0
20 -1.22453e-15 -6.3879e-16
20 -7.65546e-16 0
20 2.86873e-17 0
20 -9.68265e-16 -8.62456e-17
20 -1.39901e-15 5.19932e-16
20 -1.5858e-16 4.28234e-16
20 -6.63212e-16 -2.75912e-16
20 -2.01318e-15 -1.04243e-15
20 -5.67342e-16 8.30126e-17
20 -5.29004e-16 -3.6949e-16
20 -8.03731e-16 3.72729e-17
20 -1.29245e-15 0
20 -2.35493e-16 0
20 -1.51147e-15 -2.43184e-16
20 0 0
20 -3.76862e-16 -4.774e-17
20 -1.74938e-15 -1.90541e-15
20 -1.95984e-15 -6.71935e-16
20 -3.65337e-16 1.98612e-16
20 -2.99685e-16 3.92831e-16
20 -6.455e-16 1.18881e-16
20 -1.33604e-15 -6.00537e-16
20 -8.82174e-16 0
20 -2.29133e-16 0
20 0 0
20 -1.78427e-15 -1.00209e-15
20 -8.58744e-16 -4.69429e-16
20 -6.8784e-16 -7.5646e-16
20 -1.1071e-15 -8.22039e-16
20 -1.06273e-15 -3.88423e-16
20 -3.13844e-16 -3.88446e-16
20 -1.6655e-15 -3.66003e-17
20 8.713e-17 3.28759e-17
20 -1.62607e-15 -6.69941e-16
20 -1.82669e-16 0
20 -1.06278e-16 0
20 -7.80454e-16 -4.28358e-16
20 -2.11793e-15 -1.58675e-16
20 -1.2566e-15 -9.01847e-16
20 -1.55733e-15 -1.17454e-15
20 -7.76932e-16 -5.99782e-16
20 -1.1963e-15 -8.64967e-16
20 -7.64668e-16 -5.83396e-16
20 -1.33025e-15 -8.43644e-16
20 -1.25661e-16 -4.60708e-16
20 0 0
20 -1.37815e-15 -4.97622e-16
20 -1.92653e-17 0
20 -1.60087e-15 -1.13575e-16
20 -8.4064e-16 -7.631e-16
20 -1.32162e-15 -7.9669e-16
20 -1.14841e-15 -3.08062e-16
20 -1.57622e-15 -1.10418e-15
20 -9.55578e-16 -7.33433e-16
20 -1.50395e-15 4.08094e-16
20 -1.52848e-15 -1.0528e-15
20 -1.52499e-15 1.98129e-16
20 -9.14925e-16 -2.72774e-16
20 -1.32815e-15 -2.78378e-16
20 -5.20293e-16 0
20 -1.19525e-15 -3.13556e-16
20 -1.28153e-15 -1.40898e-15
20 -1.03513e-15 7.12531e-17
20 -1.50969e-15 -8.82228e-16
20 -1.89746e-15 -1.39271e-15
20 0 0
20 -1.64063e-15 -3.00077e-17
20 -1.16961e-15 -1.6421e-15
20 -1.18554e-15 -3.00432e-16
20 -1.74649e-15 -1.46342e-15
20 -1.39354e-15 0
20 -1.87216e-15 3.16461e-16
20 -1.09814e-15 -7.03442e-16
20 -1.49253e-15 -1.89988e-16
20 -1.58739e-15 -2.1779e-15
20 -2.1709e-15 2.17295e-16
20 -1.62442e-15 -1.02596e-15
20 -1.36268e-15 -9.43549e-16
20 -1.94935e-15 -1.02753e-15
20 -1.37849e-15 -1.6325e-15
20 -8.19372e-16 -5.27559e-16
20 -1.97263e-15 -1.23028e-15
20 0 0
20 -1.36844e-15 -7.15362e-16
20 -1.56653e-15 -4.88084e-16
20 -1.57522e-15 0
20 -1.51658e-15 -1.88137e-15
20 -1.27829e-15 2.63103e-16
20 -9.57858e-16 -7.24258e-16
20 -1.74249e-15 -2.23801e-16
20 -1.38853e-15 -1.99461e-15
20 -2.30288e-15 -4.6117e-16
20 -9.47249e-16 -5.91587e-16
20 -1.79162e-15 -2.18721e-16
20 -1.97067e-15 -1.34325e-15
20 -9.40895e-16 -1.00736e-15
20 -1.16215e-15 -1.289e-15
20 -7.08482e-16 -4.18565e-16
20 -1.11777e-15 -2.12269e-15
20 -1.52132e-15 0
20 -1.76436e-15 3.28824e-16
20 -8.92708e-16 -7.04863e-16
20 0 0
20 -1.22317e-15 -2.12667e-15
20 -1.41043e-15 -1.30746e-16
20 -1.96156e-15 -4.75081e-16
20 -9.45081e-16 -4.38098e-16
20 -2.48938e-15 -1.55885e-15
20 -9.98945e-16 -1.74115e-15
20 -8.56966e-16 -6.00562e-16
20 -1.81456e-15 -2.02841e-15
20 -1.89195e-15 7.11069e-16
20 -1.01725e-15 -7.97185e-18
20 -9.0578e-16 -1.33324e-15
20 -1.52699e-15 0
20 -1.38742e-15 -2.64821e-15
20 -1.11369e-15 -3.18493e-16
20 -1.28962e-15 -2.0913e-16
20 -1.9548e-15 -8.53321e-16
20 -1.1593e-15 -2.17349e-15
20 -7.12979e-16 -9.60328e-16
20 0 0
20 -1.47856e-15 1.89408e-16
20 -2.26368e-15 -1.78392e-15
20 -1.18104e-15 -1.41829e-16
20 -1.01849e-15 -1.92662e-15
20 -9.33662e-16 -3.05308e-16
20 -1.82716e-15 -2.11141e-15
20 -1.53306e-15 0
20 -1.86145e-15 3.56256e-16
20 -6.96122e-16 -9.41447e-16
20 -1.14359e-15 -3.0172e-16
20 -1.23235e-15 -2.37798e-15
20 -1.7765e-15 1.3861e-16
20 -1.44962e-15 6.08681e-17
20 -2.12192e-15 -8.20575e-16
20 -8.89587e-16 -1.74078e-15
20 -4.58348e-16 -3.2776e-18
20 -2.42517e-15 -1.63555e-15
20 -9.30723e-16 1.78128e-16
20 -1.50252e-15 2.72679e-17
20 -1.29661e-15 -1.20426e-16
20 -5.94674e-16 -8.75567e-16
20 -1.5456e-15 -1.86266e-15
20 -1.89942e-15 0
20 -9.53986e-16 2.87952e-17
20 -2.02234e-15 -1.44593e-18
20 -7.12833e-16 -1.78295e-15
20 -5.26511e-16 -4.39423e-16
20 -2.03252e-15 -8.43757e-16
20 -6.53753e-16 -1.32926e-15
20 -1.81204e-15 -1.65417e-15
20 -1.94644e-15 0
20 -1.26244e-15 -1.71856e-15
20 -1.87053e-15 -8.38619e-17
20 -1.84129e-15 -8.69018e-16
20 -1.87053e-15 -4.19309e-17
