/*--------------------------------*- C++ -*----------------------------------*\
| =========                 |                                                 |
| \\      /  F ield         | OpenFOAM: The Open Source CFD Toolbox           |
|  \\    /   O peration     | Version:  4.1                                   |
|   \\  /    A nd           | Web:      www.OpenFOAM.org                      |
|    \\/     M anipulation  |                                                 |
\*---------------------------------------------------------------------------*/
FoamFile
{
    version     2.0;
    format      ascii;
    class       surfaceScalarField;
    location    "600";
    object      phi;
}
// * * * * * * * * * * * * * * * * * * * * * * * * * * * * * * * * * * * * * //

dimensions      [0 3 -1 0 0 0 0];

internalField   nonuniform List<scalar> 
2700
(
-5.68434e-14
-5.68434e-14
-6.46354e-14
-6.78274e-14
0
-3.43096e-14
-5.68434e-14
-1.53862e-14
-2.07075e-14
-8.52651e-14
-2.84217e-14
-1.36021e-14
1.0984e-14
0
6.08753e-16
-6.32971e-14
-2.84217e-14
-8.93169e-15
0
0
1.82725e-14
-2.84217e-14
0
4.06166e-15
5.68434e-14
2.3507e-15
4.06166e-15
-4.26396e-14
1.06982e-14
0
-8.52651e-14
-3.79621e-14
-7.10543e-14
-7.10543e-14
-2.69655e-14
-4.35087e-14
-2.84217e-14
-1.06581e-14
-1.42109e-14
-1.33347e-14
0
-1.33347e-14
-1.15824e-14
2.09649e-15
-2.66694e-14
0
4.36866e-15
0
-1.75229e-15
7.2811e-15
-3.0174e-14
2.66694e-14
8.15949e-16
0
0
8.15949e-16
2.84217e-14
1.17758e-14
0
-5.68434e-14
-2.37513e-14
-2.84217e-14
-2.84217e-14
-1.27546e-14
-2.84217e-14
-1.5087e-14
-1.27546e-14
-2.66694e-14
1.42109e-14
1.45622e-15
-1.75229e-15
2.66694e-14
2.91244e-15
-2.84217e-14
0
1.45622e-15
1.42109e-14
4.17564e-14
5.00893e-15
-5.68434e-14
4.17564e-14
5.00893e-15
2.84217e-14
5.59673e-14
7.92138e-15
5.23131e-14
1.17758e-14
0
-2.38914e-14
-8.93169e-15
-1.5087e-14
-2.84217e-14
-9.20192e-15
8.76145e-16
-1.15824e-14
-1.06581e-14
-2.84217e-14
-1.24586e-14
-3.55271e-15
-2.84217e-14
2.84217e-14
-1.06581e-14
1.33347e-14
1.33347e-14
-9.20192e-15
1.42109e-14
1.24586e-14
-7.7457e-15
-2.84217e-14
-3.0174e-14
-3.55271e-15
2.3507e-15
-1.75229e-15
7.10543e-15
5.68434e-14
0
-1.06848e-14
-2.84217e-14
-9.54044e-15
-1.24586e-14
-2.57933e-14
-6.28948e-15
1.42109e-14
2.03332e-15
-2.73677e-15
-1.75229e-15
-2.84217e-14
-9.84219e-15
-2.92979e-14
-2.03332e-15
-1.06581e-14
1.24586e-14
-1.59624e-14
-7.10543e-15
0
0
-2.91244e-15
0
1.70699e-17
-3.55271e-15
2.84217e-14
1.75229e-15
-7.10543e-15
-2.8114e-14
-1.42109e-14
0
-4.53033e-15
-2.43501e-15
1.42109e-14
-1.68393e-14
-1.28054e-15
-1.5087e-14
1.33347e-14
-2.73677e-15
2.57933e-14
0
-4.19299e-15
-4.43849e-14
-1.33347e-14
-1.77636e-14
2.84217e-14
3.0174e-14
-7.92138e-15
1.75229e-15
1.75229e-15
-1.00179e-14
0
8.76145e-16
-6.40272e-16
0
0
5.64921e-15
0
0
0
-4.53033e-15
-7.71418e-15
4.43849e-14
-1.68393e-14
-7.10543e-15
-2.84217e-14
-4.43849e-14
-1.48511e-14
-1.75229e-15
-3.10501e-14
-6.40272e-16
-8.76145e-16
-8.76145e-16
-1.27546e-14
0
1.5087e-14
-1.21144e-14
8.76145e-16
8.76145e-16
-1.06581e-14
-1.5087e-14
1.75229e-15
-9.20192e-15
0
0
-7.7457e-15
3.94057e-14
-7.10543e-15
0
-2.84217e-14
1.21751e-15
1.68393e-14
-2.66694e-14
-2.91244e-15
-8.76145e-16
-1.42109e-14
-5.64921e-15
2.84217e-14
0
-1.45622e-15
1.5087e-14
-2.84217e-14
-5.00893e-15
0
-4.26326e-14
6.40272e-16
1.75229e-15
-2.66694e-14
-1.42109e-14
-2.62844e-15
-3.0174e-14
0
1.30355e-14
-1.33347e-14
-5.00893e-15
-1.0984e-14
-7.10543e-15
-2.3507e-15
-1.42038e-14
1.82626e-15
1.5087e-14
1.06848e-14
1.69476e-14
1.33347e-14
2.6071e-14
1.48511e-14
0
-1.53862e-14
9.84219e-15
-1.33347e-14
1.06848e-14
9.84219e-15
3.0174e-14
2.6071e-14
1.69476e-14
1.24586e-14
0
7.10543e-15
0
1.53862e-14
-7.10543e-15
1.53862e-14
1.77369e-14
-2.91244e-15
1.42038e-14
-1.42109e-14
2.13269e-14
1.20712e-14
2.84217e-14
2.1925e-14
-2.1968e-14
1.48196e-14
5.03897e-14
8.93169e-15
0
1.60371e-14
0
1.48196e-14
2.38914e-14
1.42109e-14
-2.1968e-14
6.08753e-16
0
1.82626e-15
-4.27927e-15
-6.10293e-14
-4.46376e-14
-2.49667e-14
-1.75525e-14
5.01836e-15
7.10543e-15
0
0
7.07752e-15
0
3.00945e-14
-3.59458e-15
1.63038e-14
0
0
0
0
-1.07e-14
-8.52651e-14
-2.84217e-14
-2.7912e-17
0
-3.34557e-15
7.07752e-15
2.84217e-14
0
-3.53876e-15
1.22059e-14
-7.10543e-15
-5.01836e-15
-2.84217e-14
-1.42667e-14
-2.63327e-14
-2.84217e-14
-8.30052e-15
2.63327e-14
-1.62999e-14
7.10543e-15
-2.63327e-14
-1.42109e-14
-3.58528e-15
7.94378e-15
-2.84217e-14
-5.91033e-15
-2.84217e-14
-2.42437e-14
-5.9429e-15
-2.42437e-14
-1.00328e-14
1.16253e-15
1.00328e-14
4.26326e-14
1.06581e-14
3.00945e-14
2.84217e-14
0
2.84217e-14
-1.06721e-14
-5.01836e-15
2.29871e-14
-8.37361e-17
-1.42109e-14
0
7.07286e-15
2.84217e-14
0
2.35762e-15
-2.63327e-14
2.08903e-15
-3.2564e-17
1.21218e-14
-1.42109e-14
0
0
-2.84217e-14
2.35762e-15
1.42109e-14
-4.17805e-15
2.39019e-15
-1.83889e-14
0
3.55271e-15
3.00945e-14
4.68106e-14
0
5.14088e-14
-1.07e-14
-3.34557e-15
-3.92909e-14
-1.07e-14
-1.42109e-14
-3.25998e-14
5.91033e-15
1.62999e-14
0
2.35762e-15
-4.26326e-14
-3.05107e-14
-5.91033e-15
-2.08903e-15
2.84217e-14
7.10543e-15
2.42437e-14
1.42109e-14
9.46305e-15
1.83889e-14
1.83889e-14
7.07286e-15
2.84217e-14
-4.17805e-15
9.46305e-15
3.34557e-15
-1.83889e-14
-7.10543e-15
-2.84217e-14
-1.42109e-14
3.34557e-15
0
0
-1.00328e-14
-2.42437e-14
-5.9429e-15
0
2.08903e-15
-1.19509e-15
-1.21218e-14
-1.21218e-14
-4.74781e-15
-2.08903e-15
-1.62999e-14
0
1.42109e-14
-2.63327e-14
5.91033e-15
-4.17805e-15
-2.84217e-14
1.30158e-14
0
-1.13494e-30
1.16253e-15
0
2.04779e-14
1.16253e-15
-4.59643e-15
-7.10543e-15
-2.84217e-14
0
-3.56667e-15
1.62999e-14
2.08903e-15
9.46305e-15
0
-1.42109e-14
0
-3.05107e-14
0
1.16253e-15
-1.21218e-14
0
3.52015e-15
2.63327e-14
0
3.55271e-15
3.84545e-14
-1.42109e-14
1.06256e-14
2.04779e-14
-2.42437e-14
-3.2564e-17
1.67279e-15
-3.46888e-14
7.10543e-15
-2.84217e-14
2.7912e-17
-3.00945e-14
5.68434e-14
0
0
2.63327e-14
7.10543e-15
2.84217e-14
-2.08903e-15
4.74781e-15
-1.62999e-14
0
-7.10543e-15
2.08903e-15
1.62999e-14
2.35762e-15
1.21218e-14
4.68106e-14
8.30052e-15
2.84217e-14
2.08903e-15
7.10543e-15
1.00328e-14
-7.94378e-15
2.35762e-15
-3.34557e-15
-7.94378e-15
1.16253e-15
-5.4346e-15
1.42109e-14
-2.84217e-14
-3.38563e-14
-7.10543e-15
-1.42109e-14
6.26708e-15
-1.19509e-15
1.62999e-14
3.46888e-14
2.35762e-15
0
1.83889e-14
8.26796e-15
1.83889e-14
1.83889e-14
8.26796e-15
-3.25998e-14
2.08903e-15
3.58528e-15
1.83889e-14
1.83889e-14
7.10543e-15
-4.17805e-15
-1.83889e-14
1.77636e-14
0
-2.42437e-14
3.55271e-15
5.4346e-15
1.06721e-14
2.50761e-14
0
2.12884e-14
0
-1.67279e-15
1.65685e-14
0
-1.67279e-15
9.49561e-15
0
-3.00945e-14
7.10543e-15
2.08903e-15
-3.34401e-14
2.39019e-15
-3.05107e-14
0
3.2564e-17
-1.83889e-14
2.84217e-14
3.2564e-17
4.17805e-15
2.84217e-14
1.06581e-14
3.34401e-14
6.0189e-14
9.49561e-15
2.84217e-14
0
2.02258e-14
2.69615e-14
0
1.77775e-14
-2.84217e-14
3.56667e-15
-1.08692e-14
1.77775e-14
1.08692e-14
1.07279e-14
5.4346e-15
5.5824e-17
1.08692e-14
7.13334e-15
0
1.06721e-14
-1.62158e-14
3.56667e-15
0
0
9.96229e-15
7.10543e-15
0
-2.20949e-14
7.10543e-15
-5.15205e-14
6.32682e-15
7.10543e-15
4.08746e-14
1.73743e-14
1.50881e-14
0
-1.10474e-14
7.98271e-15
-5.32295e-15
1.73743e-14
-3.5963e-15
0
0
-1.24563e-14
-1.59689e-14
0
-1.86844e-14
2.34406e-14
1.10474e-14
-1.42109e-14
0
-1.47895e-14
-2.84217e-14
-1.77758e-14
-8.85999e-15
2.84217e-14
1.9333e-14
1.39856e-15
-3.75104e-14
-2.84217e-14
1.39856e-15
-7.68327e-15
0
-1.39856e-15
1.42109e-14
-2.58606e-14
7.10543e-15
0
-2.58606e-14
-1.06581e-14
0
9.08868e-15
-4.95127e-15
-1.9333e-14
1.42109e-14
-8.50399e-15
0
1.42109e-14
-1.06581e-14
1.06459e-14
0
0
-1.06459e-14
-8.77282e-16
-1.9333e-14
9.08868e-15
-7.10543e-15
-9.08868e-15
0
8.50399e-15
-1.9333e-14
-7.68327e-15
1.06581e-14
2.84217e-14
0
1.42109e-14
2.07384e-14
0
0
1.9333e-14
7.68327e-15
-1.06581e-14
-1.9333e-14
2.56109e-15
-3.55271e-15
-6.32682e-15
-9.08868e-15
-1.77636e-14
1.77758e-14
1.75456e-15
0
-5.32295e-15
-1.75456e-15
-2.84217e-14
-3.09828e-14
-5.70687e-15
-2.56109e-15
-1.42109e-14
8.50399e-15
-2.58606e-14
-2.58606e-14
2.47564e-15
1.42109e-14
0
3.55271e-15
1.42109e-14
0
4.95127e-15
2.84217e-14
1.42109e-14
4.62979e-15
-3.09828e-14
-2.56109e-15
-6.02835e-15
6.32682e-15
1.42109e-14
-7.10543e-15
0
-7.10543e-15
0
-2.30988e-14
-8.77282e-16
-1.16498e-14
1.67719e-14
2.47564e-15
0
0
1.06581e-14
0
-9.08868e-15
3.55271e-15
2.84217e-14
-9.08868e-15
1.06581e-14
4.26326e-14
-2.84217e-14
7.10543e-15
-2.56109e-15
-3.75104e-14
-6.02835e-15
0
-1.16498e-14
-7.10543e-15
6.32682e-15
2.56109e-15
-1.07708e-15
0
-7.10543e-15
2.84217e-14
2.30988e-14
7.10543e-15
-2.84217e-14
-1.42109e-14
1.07708e-15
-9.08868e-15
-1.67719e-14
1.17352e-14
0
-1.9333e-14
1.03367e-14
9.08868e-15
9.08868e-15
1.99177e-14
3.35439e-14
1.16498e-14
1.91621e-14
9.08868e-15
-2.18941e-14
1.28123e-14
2.84217e-14
-2.84217e-14
7.10543e-15
-3.31423e-14
-3.09828e-14
0
1.06459e-14
0
-1.73743e-14
0
7.10543e-15
-2.56109e-15
0
1.88406e-14
-1.16498e-14
2.56109e-15
1.77636e-14
1.42109e-14
3.35439e-14
1.52879e-14
1.16498e-14
1.9333e-14
1.06581e-14
0
0
1.42109e-14
2.56109e-15
-1.16498e-14
6.02835e-15
1.16498e-14
5.12218e-15
1.20567e-14
0
-2.58606e-14
1.09796e-14
0
8.85999e-15
-1.73743e-14
1.59689e-14
7.10543e-15
0
5.03158e-14
1.42109e-14
5.12218e-15
4.26326e-14
1.88406e-14
0
0
9.25958e-15
6.52759e-15
9.08868e-15
1.74421e-14
-1.16498e-14
-1.16498e-14
9.25958e-15
3.35439e-14
-2.56109e-15
2.27148e-14
-1.9333e-14
-1.9333e-14
1.77636e-14
1.73743e-14
-2.84217e-14
1.80851e-14
-2.84217e-14
6.22814e-15
1.10474e-14
0
1.75456e-15
-7.68327e-15
-1.10474e-14
4.30831e-15
-3.75104e-14
-6.31702e-14
8.1825e-15
9.08868e-15
0
1.6365e-14
-2.84217e-14
-2.84217e-14
1.88406e-14
-2.56109e-15
1.73743e-14
2.45475e-14
3.09828e-14
3.94692e-14
2.4869e-14
-2.84217e-14
4.5796e-14
1.77636e-14
1.73743e-14
4.5796e-14
1.77636e-14
2.84217e-14
2.0439e-14
0
-3.8578e-16
-5.68434e-14
-2.71901e-15
2.84217e-14
3.10536e-14
-1.06459e-14
2.39481e-14
2.30988e-14
1.50881e-14
3.37447e-14
1.42109e-14
5.15205e-14
1.50881e-14
-2.84217e-14
-8.77282e-16
0
-8.77282e-16
0
0
-2.84217e-14
0
0
-2.84217e-14
-3.62421e-15
-2.84217e-14
0
3.48122e-15
3.70236e-14
-1.91137e-14
1.76921e-14
-1.98198e-14
0
-5.29332e-15
1.60805e-14
-1.39621e-14
5.43631e-15
-1.60805e-14
0
3.62421e-15
0
2.37677e-14
-1.66911e-15
5.23563e-14
-4.65403e-15
-7.10543e-15
6.73072e-15
-1.90846e-14
0
-1.23412e-14
7.10543e-15
2.84217e-14
-2.84217e-14
9.69908e-15
-3.4488e-14
0
3.55271e-15
5.38103e-14
3.4488e-14
1.06581e-14
-4.26326e-14
3.03315e-15
-9.59061e-16
3.65663e-14
1.7244e-14
9.69908e-15
0
0
-6.4299e-15
-1.42109e-14
2.02772e-14
-1.77636e-14
5.68434e-14
0
-7.78096e-15
0
-1.6023e-14
-2.37677e-14
-1.60805e-14
5.29332e-15
5.68434e-14
2.84217e-14
7.10543e-15
0
0
-1.63459e-15
8.14455e-15
-6.0663e-15
7.10543e-15
-2.84217e-14
-2.84217e-14
-7.10543e-15
1.93223e-14
6.0663e-15
5.18731e-15
6.0663e-15
3.4488e-14
-9.98261e-15
-3.4488e-14
0
-1.22927e-14
2.84217e-14
2.02772e-14
-1.91812e-15
0
-1.05866e-14
0
2.46824e-14
-3.62421e-15
2.84217e-14
2.23554e-14
1.91812e-15
-6.0663e-15
8.14455e-15
5.47084e-15
0
0
4.51177e-15
6.0663e-15
1.42109e-14
0
3.35331e-14
2.23554e-14
-1.63459e-15
-1.42109e-14
-1.42109e-14
-9.98261e-15
-1.42109e-14
0
-7.10543e-15
6.61515e-14
4.56657e-14
2.59365e-15
0
-8.77454e-15
0
0
-1.8121e-15
1.42109e-14
1.11777e-14
4.51177e-15
-2.84217e-14
1.11777e-14
-2.59365e-15
1.42109e-14
-3.03315e-15
3.55271e-15
0
0
1.63459e-15
1.11777e-14
6.0663e-15
0
0
1.7244e-14
2.59365e-15
1.7244e-14
1.7244e-14
-1.16172e-14
-1.44596e-14
0
-2.59365e-15
2.84217e-14
-3.48122e-15
3.30757e-14
4.07629e-14
-1.8121e-15
2.84217e-14
4.26326e-14
2.59365e-15
-2.84217e-14
2.84217e-14
-7.10543e-15
1.7244e-14
2.84217e-14
9.69908e-15
6.0663e-15
0
0
8.14455e-15
1.93223e-14
2.87718e-15
0
-1.42109e-14
-6.14637e-15
0
-8.14455e-15
-9.69908e-15
1.39621e-14
6.0663e-15
-4.22824e-15
0
3.62421e-15
2.84217e-14
0
-1.78351e-14
0
-2.53886e-14
-8.06449e-15
-2.84217e-14
0
-4.51177e-15
3.03315e-15
3.03315e-15
1.13337e-14
2.53886e-14
2.53886e-14
1.42109e-14
-2.53886e-14
8.14455e-15
0
6.0663e-15
3.4488e-14
1.06581e-14
2.84217e-14
2.84217e-14
4.79531e-15
2.32701e-14
3.03315e-15
1.19007e-14
-3.70236e-14
0
-4.65403e-15
-1.23412e-14
0
2.53886e-14
1.11777e-14
7.10543e-15
-2.53886e-14
0
2.59365e-15
3.95994e-14
2.84217e-14
1.93982e-14
8.14455e-15
2.84217e-14
9.69908e-15
-1.3256e-14
1.42109e-14
1.63459e-15
0
1.93223e-14
1.24259e-15
3.03315e-15
2.23554e-14
1.19007e-14
-1.44596e-14
-9.09946e-15
1.99652e-14
0
1.588e-14
4.65403e-15
-5.68434e-14
-1.8121e-15
2.84217e-14
-1.91137e-14
9.69908e-15
-1.11777e-14
0
6.75531e-16
3.95994e-14
4.65403e-15
5.18731e-15
2.23554e-14
-5.68434e-14
9.69908e-15
-8.14455e-15
-3.77298e-14
-5.47084e-15
3.03315e-15
-2.84217e-14
0
-2.84217e-14
-2.84217e-14
-3.26918e-15
0
-2.84217e-14
-4.22824e-15
-2.24357e-15
1.66911e-15
5.01127e-14
1.42109e-14
6.05827e-14
5.43631e-15
0
1.8121e-15
-2.84217e-14
1.25417e-14
2.84217e-14
3.02338e-14
0
1.25417e-14
-1.23412e-14
8.91753e-15
-2.84217e-14
1.23988e-14
-2.24357e-15
6.96244e-15
1.19791e-14
-1.89366e-14
0
3.04605e-14
2.84217e-14
-4.2231e-15
1.42109e-14
2.84217e-14
-1.22893e-14
7.10543e-15
0
0
2.60394e-15
1.58366e-15
0
7.10543e-15
0
-2.03555e-14
-9.70936e-15
-2.84217e-14
-2.03555e-14
-9.70936e-15
3.31727e-14
-4.45541e-14
7.10543e-15
2.84217e-14
-1.61324e-14
3.79511e-15
0
-9.88931e-16
8.0662e-15
-2.84217e-14
1.87123e-14
1.07056e-14
-3.19269e-14
1.14992e-14
7.20042e-15
-2.12213e-14
1.68209e-15
0
-2.14113e-14
-6.26438e-15
0
-2.84217e-14
-6.26438e-15
0
-7.20042e-15
-2.71167e-15
-3.89374e-14
-2.84217e-14
-1.16877e-14
3.21169e-14
2.84217e-14
5.42334e-15
1.61324e-14
3.31522e-15
-1.49356e-15
-4.75098e-15
-3.31031e-15
0
3.1589e-14
1.87123e-14
3.56221e-14
2.14113e-14
1.06581e-14
7.01043e-15
1.42109e-14
0
-7.01043e-15
1.79061e-14
8.78752e-15
7.01043e-15
0
0
-7.01043e-15
-7.01043e-15
2.52314e-15
3.69521e-15
7.01043e-15
-1.02958e-15
7.01043e-15
7.01043e-15
-3.55271e-15
2.84217e-14
3.50521e-15
6.26438e-15
-1.58366e-15
1.16069e-14
0
3.00054e-14
9.70936e-15
5.68434e-14
5.33382e-14
7.94647e-15
-3.50521e-15
-3.50521e-15
-7.10543e-15
-2.49165e-14
3.50521e-15
-8.41045e-16
0
7.01043e-15
0
7.01043e-15
2.84217e-14
8.41045e-16
3.69521e-15
3.56221e-14
-4.58229e-15
3.50521e-15
-2.49165e-14
-1.25288e-14
2.84217e-14
2.49165e-14
9.62856e-15
1.58366e-15
7.10543e-15
2.84217e-14
2.84217e-14
-1.89756e-15
0
3.50521e-15
0
3.50521e-15
0
4.58229e-15
-7.20042e-15
2.84217e-14
5.42334e-15
2.14113e-14
2.14113e-14
1.68209e-15
2.84217e-14
2.49165e-14
-3.55271e-15
-4.26326e-14
-1.77161e-14
-1.06581e-14
3.91273e-14
2.49165e-14
7.94647e-15
2.84217e-14
2.14113e-14
7.10543e-15
2.84217e-14
4.50149e-15
8.0662e-15
-2.52544e-14
-9.00298e-15
-3.50521e-15
0
8.41045e-16
3.19269e-14
1.77161e-14
-8.41045e-16
-2.84217e-14
7.01043e-15
-1.68209e-15
2.49165e-14
5.68434e-14
0
-1.42109e-14
2.84217e-14
-4.39376e-15
0
6.03486e-14
-8.41045e-16
3.56221e-14
3.56221e-14
7.10543e-15
1.61324e-14
5.68434e-14
1.16877e-14
3.1589e-14
0
2.41986e-14
2.52544e-14
-7.81181e-15
1.42109e-14
2.84217e-14
0
7.01043e-15
1.42109e-14
-7.10543e-15
2.14113e-14
2.84217e-14
1.68209e-15
-3.50521e-15
2.84217e-14
-7.10543e-15
3.50521e-15
2.84217e-14
-2.52314e-15
-1.05156e-14
3.69521e-15
8.41045e-16
5.68434e-14
5.68434e-14
5.42334e-15
0
2.84217e-14
8.41045e-16
0
-5.20787e-15
8.0662e-15
0
-7.06379e-16
2.84217e-14
2.84217e-14
0
7.01043e-15
-2.14113e-14
-1.42109e-14
2.14113e-14
-1.42109e-14
-5.42334e-15
-3.50521e-15
2.84217e-14
-6.26438e-15
-7.01043e-15
0
-3.55271e-15
2.84217e-14
7.01043e-15
-1.68209e-15
2.84217e-14
-1.77161e-14
0
-2.84217e-14
-7.10543e-14
0
-2.84217e-14
7.10543e-15
8.0662e-15
-1.89534e-14
-7.81181e-15
-7.20042e-15
-2.84217e-14
0
0
1.22893e-14
1.68209e-15
6.40438e-14
2.84217e-14
9.62856e-15
-1.77161e-14
0
-8.13501e-15
0
2.41986e-14
7.10543e-15
-2.47265e-14
8.0662e-15
6.26438e-15
-2.49165e-14
2.41986e-14
9.8171e-15
2.84217e-14
2.03555e-14
1.14992e-14
0
7.10543e-15
2.84217e-14
0
2.84217e-14
-7.10543e-15
2.52544e-14
-7.10543e-15
6.00107e-14
5.20787e-15
-3.1589e-14
2.60394e-15
-2.52544e-14
-1.19118e-15
-2.6838e-14
7.06379e-16
-2.36707e-14
7.81181e-15
9.46829e-15
1.16069e-14
1.82885e-14
6.7644e-15
0
3.07854e-14
0
-1.52705e-14
2.14872e-14
-9.17389e-15
-2.84217e-14
1.43818e-14
9.17389e-15
-2.84217e-14
1.44672e-14
-2.84217e-14
-4.92081e-14
-8.54518e-17
0
-2.07864e-14
-7.36178e-15
4.76695e-14
-3.39376e-14
-8.54518e-17
9.17389e-15
-2.84217e-14
-2.85926e-14
1.17287e-14
-2.84217e-14
-1.42963e-14
-1.17287e-14
-2.13163e-14
7.63527e-15
-2.84217e-14
2.80799e-14
-7.95456e-15
-2.84217e-14
1.92096e-14
1.02336e-14
0
1.27648e-14
0
3.97728e-15
-7.23029e-16
0
-1.02336e-14
0
-7.95456e-15
0
-1.06581e-14
2.21654e-14
0
-8.55149e-15
3.97728e-15
6.2563e-15
-9.21208e-15
2.84217e-14
0
-1.20418e-14
0
-2.13163e-14
-2.07864e-14
2.01479e-14
3.52708e-14
2.04672e-14
3.07007e-14
2.70381e-14
1.42109e-14
0
1.06581e-14
-1.42109e-14
0
0
1.02336e-14
0
4.27574e-15
-7.95456e-15
0
-3.55271e-15
2.84217e-14
-2.04672e-14
-5.7218e-15
2.61427e-14
-2.84217e-14
1.38363e-15
2.84217e-14
3.07007e-14
-2.82968e-15
0
-7.10543e-15
0
1.00739e-14
1.42963e-14
-1.02336e-14
1.42109e-14
3.55271e-15
1.42109e-14
2.21654e-14
1.06581e-14
-2.84217e-14
-6.2563e-15
2.10665e-15
1.02336e-14
0
7.10543e-15
-1.42109e-14
3.97728e-15
0
2.04672e-14
1.81881e-14
1.42109e-14
7.10543e-14
3.63763e-14
2.10665e-15
5.51589e-15
7.95456e-15
-3.55271e-15
2.84217e-14
0
4.15729e-14
2.84217e-14
1.43818e-14
-1.64899e-14
0
-7.10543e-15
0
-7.95456e-15
-1.38363e-15
-3.63763e-14
0
1.44606e-15
0
2.84217e-14
4.27574e-15
0
1.42109e-14
5.7218e-15
3.86553e-14
2.84217e-14
1.77636e-14
5.68434e-14
2.84217e-14
7.10543e-15
2.07864e-14
4.66098e-14
9.93511e-15
2.76645e-14
7.01998e-15
1.31512e-14
-9.00047e-16
1.70904e-16
-1.02336e-14
-1.02336e-14
-5.65937e-15
7.95456e-15
0
-6.3824e-15
-7.95456e-15
2.04672e-14
-3.49028e-15
0
2.84217e-14
-8.48905e-15
0
2.21654e-14
7.10543e-15
3.86553e-14
6.7077e-14
1.77636e-14
6.08207e-14
5.68434e-14
9.93511e-15
-2.07864e-14
4.09343e-14
0
2.84217e-14
8.54518e-17
0
-1.00739e-14
6.84907e-15
0
2.84217e-14
1.13812e-14
2.84217e-14
0
4.27574e-15
0
0
0
7.95456e-15
2.44444e-14
-2.82968e-15
3.07007e-14
3.07007e-14
1.44606e-15
2.84217e-14
2.84217e-14
2.82968e-15
5.91224e-14
4.88889e-14
2.82968e-15
-5.13275e-14
1.81881e-14
-5.06121e-15
3.84956e-14
-6.84907e-15
1.52705e-14
0
6.59272e-15
-1.42109e-14
2.84217e-14
4.27574e-15
1.42109e-14
2.84217e-14
7.10543e-15
2.44444e-14
3.86553e-14
-2.82968e-15
0
2.04672e-14
-7.10543e-15
2.84217e-14
5.68434e-14
2.82968e-15
4.88889e-14
1.81881e-14
0
1.42109e-14
1.42109e-14
-6.24336e-17
0
-1.81881e-14
-7.89089e-15
-2.84217e-14
-1.37836e-14
4.36923e-14
-4.9643e-15
6.84907e-15
-2.84217e-14
-5.68434e-14
-8.48905e-15
3.86553e-14
0
0
2.04672e-14
-7.63527e-15
-4.27574e-15
3.63763e-14
4.15729e-14
-3.61515e-15
-1.02336e-14
-1.31512e-14
-7.10543e-15
4.49116e-14
2.29058e-14
-8.48905e-15
-1.81881e-14
7.63527e-15
-8.55149e-15
-7.63527e-15
-7.63527e-15
-7.85463e-16
4.9643e-15
2.56355e-16
0
5.32544e-15
2.84217e-14
7.01998e-15
2.84217e-14
0
7.60912e-14
0
-1.83478e-14
-2.12308e-14
0
-2.11454e-14
4.76695e-14
1.70904e-16
9.17389e-15
-6.76362e-15
4.9643e-15
7.61814e-15
8.88541e-15
-1.3512e-14
2.84217e-14
1.80956e-14
0
-1.01699e-14
8.66118e-15
0
-2.84217e-14
-1.21909e-15
-3.13726e-14
-6.70133e-14
-1.21909e-15
-3.98629e-14
-2.84217e-14
-8.32452e-15
1.14412e-14
-4.66735e-14
-1.69857e-14
-1.14412e-14
-2.84217e-14
0
3.98629e-14
2.84217e-14
0
5.68434e-14
1.82518e-14
-8.32452e-15
-3.29257e-14
-1.94239e-14
-2.33367e-14
-3.6912e-14
-7.10543e-15
-1.9523e-14
-4.44934e-15
-7.10543e-15
-2.31095e-14
-8.89868e-15
5.36775e-15
-4.44934e-15
0
7.71044e-15
-4.26326e-14
0
-5.8954e-15
2.84217e-14
2.84217e-14
1.81504e-15
1.9523e-14
4.44934e-15
1.21003e-15
0
2.75589e-14
-3.55271e-15
1.52549e-14
2.31095e-14
-1.00531e-14
2.84217e-14
-2.43818e-15
-5.08496e-15
-2.84217e-14
0
-2.39724e-14
-2.84217e-14
-1.06581e-14
-2.84217e-14
0
6.05014e-16
-4.44934e-15
-5.31217e-15
5.36775e-15
-1.42109e-14
4.44934e-15
-5.8954e-15
4.44934e-15
2.84217e-14
4.76274e-15
5.68434e-14
5.23941e-14
1.24732e-14
-4.44934e-15
-4.44934e-15
-1.73767e-15
-2.33367e-14
4.79447e-14
-2.34269e-15
2.84217e-14
-3.99393e-15
-5.08496e-15
3.6912e-14
1.26551e-14
-9.76151e-15
-2.84217e-14
-7.10543e-15
-3.37339e-14
-3.28711e-14
-1.73767e-15
-8.89868e-15
-8.89868e-15
1.36832e-14
9.76151e-15
9.76151e-15
4.15773e-15
2.84217e-14
1.9523e-14
-2.34269e-15
0
1.86602e-14
-5.29039e-15
3.37339e-14
1.42109e-14
1.21003e-15
-4.15885e-14
2.75589e-14
-1.71586e-14
6.53337e-14
5.88634e-15
-5.68434e-14
-2.84217e-14
-3.1115e-15
0
1.9523e-14
1.23958e-14
4.44934e-15
-1.42109e-14
1.42109e-14
9.76151e-15
8.62831e-16
7.71044e-15
1.9523e-14
5.31217e-15
7.10543e-15
1.3348e-14
-8.62831e-16
-7.10543e-15
-4.44934e-15
1.42109e-14
-1.73767e-15
4.70819e-14
3.28711e-14
3.55271e-15
-5.08496e-15
-2.49243e-30
-1.23958e-14
-7.64617e-17
0
-1.01699e-14
1.69805e-14
-5.88634e-15
-4.79447e-14
2.31095e-14
-5.36775e-15
1.9523e-14
5.68434e-14
4.76274e-15
0
2.75589e-14
2.34269e-15
2.75589e-14
2.31095e-14
1.73767e-15
4.26326e-14
0
6.05014e-16
0
0
-4.68537e-15
2.84217e-14
2.84217e-14
-5.29039e-15
0
1.3348e-14
-1.00531e-14
-1.69805e-14
-1.54299e-14
3.85916e-14
-1.99314e-14
-5.88634e-15
-1.42109e-14
0
-1.06581e-14
4.44934e-15
4.44934e-15
-7.10543e-15
-4.44934e-15
-4.44934e-15
6.05014e-16
-9.76151e-15
1.42109e-14
2.9477e-15
4.26326e-14
4.26326e-14
3.55271e-15
2.84217e-14
2.39724e-14
4.15773e-15
1.3348e-14
2.31095e-14
-6.50041e-15
-3.35067e-14
0
-4.68537e-15
2.84217e-14
-1.21909e-15
4.36766e-14
2.95089e-15
-1.1436e-14
-2.39724e-14
-2.31095e-14
-9.44811e-15
-4.44934e-15
0
-1.73767e-15
1.42109e-14
1.86602e-14
1.21003e-15
1.86602e-14
1.3348e-14
2.9477e-15
2.39724e-14
2.39724e-14
-2.9477e-15
2.75589e-14
-8.89868e-15
-2.34269e-15
4.44934e-15
2.92845e-14
4.76274e-15
-5.08496e-15
2.39724e-14
-1.13266e-15
4.54023e-14
-1.21909e-15
-1.01699e-14
9.00797e-15
7.10543e-15
-8.62831e-16
1.01699e-14
-4.76274e-15
1.42109e-14
0
3.55271e-15
3.73204e-14
0
-7.10543e-15
1.50737e-14
-3.85916e-14
-1.73767e-15
-8.89868e-15
-2.84217e-14
-9.44811e-15
5.15312e-14
3.85916e-14
-7.10543e-15
1.3348e-14
5.08496e-15
-1.06581e-14
-1.01699e-14
5.08496e-15
-1.73767e-15
-9.00797e-15
-2.77484e-15
1.94137e-14
-6.44131e-15
1.99314e-14
2.77484e-15
2.84217e-14
5.54968e-15
0
4.33059e-15
3.6912e-14
-1.21909e-15
5.68434e-14
1.55575e-15
1.99314e-14
-1.54299e-14
2.95089e-15
-2.25354e-14
-2.39177e-14
3.1115e-15
9.66196e-15
-2.84217e-14
-5.95641e-14
-4.80775e-15
-3.0689e-14
-5.68434e-14
1.42109e-14
0
0
7.10543e-15
-6.80183e-15
0
1.03878e-14
-2.84217e-14
-6.74599e-14
5.46423e-15
3.52235e-14
-2.84217e-14
5.46423e-15
-4.53455e-15
-7.18868e-15
-2.18182e-15
-2.26728e-15
0
-9.28725e-15
2.29802e-14
0
-1.09285e-14
0
-2.59116e-14
-3.90382e-14
-2.61544e-14
1.42109e-14
9.28945e-15
-4.9214e-15
1.46979e-14
0
0
4.52671e-15
-3.82645e-14
4.36805e-15
-2.09172e-15
-4.9214e-15
2.84217e-14
1.06581e-14
3.33431e-14
3.33431e-14
-4.86998e-16
0
2.84217e-14
-1.01711e-14
-4.9214e-15
1.42109e-14
-1.37239e-14
2.1233e-14
3.33431e-14
-2.03423e-14
4.53455e-15
-2.13163e-14
-4.62269e-14
4.53455e-15
1.58521e-14
2.84217e-14
0
4.52671e-15
4.36805e-15
4.36805e-15
-2.57872e-15
-1.42109e-14
2.84217e-14
-1.37239e-14
0
-4.36805e-15
3.55271e-15
2.84217e-14
0
2.57872e-15
0
-4.9214e-15
-1.01711e-14
0
1.42109e-14
-4.52671e-15
-1.78052e-14
2.35003e-14
-3.06572e-15
5.91107e-14
-1.09285e-14
-2.49939e-14
-2.61544e-14
1.74933e-14
3.27898e-14
2.89751e-14
4.52671e-15
2.84217e-14
2.40537e-14
-6.61843e-15
-4.70006e-14
-1.85789e-14
-1.06581e-14
4.36805e-15
2.84217e-14
4.52671e-15
2.35003e-14
2.84217e-14
-6.61843e-15
3.33431e-14
3.33431e-14
-7.10543e-15
-1.91323e-14
9.84281e-15
-4.52671e-15
4.62269e-14
4.9214e-15
-4.86998e-16
4.53455e-15
-1.96751e-14
1.06165e-14
-5.91107e-14
2.62399e-14
1.36575e-14
-2.40537e-14
8.56642e-15
-2.84217e-14
-3.82645e-14
-2.57872e-15
0
0
4.52671e-15
4.36805e-15
-9.28945e-15
-2.57872e-15
2.84217e-14
-4.36805e-15
-1.01711e-14
2.40537e-14
2.35003e-14
-1.01711e-14
-2.40537e-14
-2.40537e-14
-7.10543e-15
6.40321e-14
-4.36805e-15
0
-5.29894e-14
-1.63927e-14
2.1233e-14
5.23089e-14
2.95223e-14
-5.53358e-16
-1.91323e-14
1.21191e-14
2.40537e-14
-4.36805e-15
7.10543e-15
-9.28945e-15
0
-2.57872e-15
9.28945e-15
2.84217e-14
-2.09172e-15
4.20792e-14
4.9214e-15
-9.68415e-15
-9.28945e-15
1.47642e-14
-1.11451e-14
9.84281e-15
2.40537e-14
-4.52671e-15
2.1233e-14
2.84217e-14
-2.09172e-15
3.29563e-14
1.6412e-15
-1.78052e-14
2.16199e-14
1.58521e-14
0
1.85789e-14
1.46099e-15
1.42109e-14
1.85789e-14
1.46099e-15
4.9214e-15
1.85789e-14
-4.67044e-15
0
1.42109e-14
-2.09172e-15
3.77112e-14
9.28945e-15
-5.15744e-15
0
3.27898e-14
-9.19715e-15
0
3.33431e-14
-2.57872e-15
0
2.84217e-14
-2.57872e-15
2.84217e-14
-2.18182e-15
0
3.29563e-14
0
0
9.84281e-15
4.86998e-16
1.42109e-14
5.53358e-16
-2.09172e-15
5.53358e-16
-4.20792e-14
-6.61843e-15
-1.91323e-14
-1.91323e-14
-2.09172e-15
6.12115e-14
1.85789e-14
4.52671e-15
1.47642e-14
0
-1.06581e-14
-4.9214e-15
-4.9214e-15
-6.61843e-15
0
1.42109e-14
-1.42109e-14
5.68434e-14
-2.13163e-14
-2.84217e-14
-2.84217e-14
-2.18182e-15
4.9214e-15
-1.06165e-14
8.56642e-15
-2.84217e-14
-2.1233e-14
1.46099e-15
3.77112e-14
3.90382e-14
8.56642e-15
1.85789e-14
2.1233e-14
3.55271e-15
2.84217e-14
0
-7.10543e-15
-4.36805e-15
-1.78052e-14
-1.37239e-14
2.84217e-14
-7.18868e-15
-2.09172e-15
0
0
-1.63026e-14
2.84217e-14
-1.58521e-14
-2.5701e-14
-7.31781e-15
4.53455e-15
9.84721e-15
5.00416e-14
1.69526e-14
-4.53455e-15
-3.82302e-15
2.84217e-14
0
2.61544e-14
-1.96751e-14
2.26728e-15
-1.42109e-14
4.53455e-15
-1.96751e-14
2.84217e-14
-1.09285e-14
-3.55271e-14
-1.84763e-14
2.84217e-14
0
-4.14465e-14
-2.10372e-15
1.65364e-15
2.37206e-15
-4.20744e-15
8.20785e-15
0
-3.05254e-14
0
-2.84217e-14
0
-1.36596e-14
-1.30248e-14
-2.84217e-14
5.51213e-16
2.37206e-15
0
7.10543e-15
0
-2.42143e-14
-1.42109e-14
-8.53081e-15
-5.68434e-14
-7.10543e-15
8.53081e-15
-4.99275e-15
-2.84217e-14
-2.84217e-14
-7.65664e-15
-2.49978e-14
-5.34195e-14
5.78517e-15
-1.96043e-14
-1.42109e-14
8.01762e-15
3.38152e-14
-1.42109e-14
2.23245e-15
-5.68434e-14
0
-1.38028e-14
-5.39347e-15
1.07869e-14
1.10662e-14
-2.84217e-14
0
-9.12196e-16
-2.49978e-14
3.03913e-14
-9.12196e-16
5.68434e-14
8.18412e-14
9.12196e-16
2.84217e-14
-1.53133e-14
-3.26291e-14
-1.53969e-14
-5.51213e-16
0
0
3.14465e-15
-1.96043e-14
-5.39347e-15
0
4.8026e-14
1.96043e-14
1.42109e-14
-3.18456e-14
-2.84217e-14
-5.78517e-15
-1.96955e-15
-1.61804e-14
-5.04134e-16
1.61804e-14
2.84217e-14
-4.46491e-15
4.0663e-14
2.84217e-14
4.08063e-16
-3.26291e-14
1.96043e-14
-1.06581e-14
2.60496e-14
-1.53133e-14
-3.47329e-14
2.84217e-14
7.65664e-15
-5.39347e-15
1.07869e-14
0
5.39347e-15
3.38152e-14
0
0
2.84217e-14
-3.14465e-15
-3.38152e-14
0
-3.14465e-15
1.42109e-14
0
-8.01762e-15
1.61804e-14
0
-9.12196e-16
3.18456e-14
0
4.08063e-16
-3.05254e-14
0
-1.73555e-14
2.84217e-14
-1.42109e-14
-2.10372e-15
-1.06528e-14
5.51213e-16
1.76348e-14
1.76348e-14
6.19323e-15
0
0
-5.78517e-15
-2.84217e-14
-2.84217e-14
-1.02501e-14
-1.96043e-14
-2.84217e-14
-1.38028e-14
2.84217e-14
-8.81739e-15
-4.46491e-15
1.61804e-14
1.96043e-14
-8.01762e-15
1.76348e-14
0
-9.12196e-16
-2.10372e-15
-1.96043e-14
-2.23245e-15
0
-7.10543e-15
0
-2.37206e-15
-1.10243e-15
0
-1.96043e-14
-7.10543e-15
-2.84217e-14
-1.96043e-14
-9.33788e-15
-2.84217e-14
-1.96955e-15
-5.78517e-15
0
2.84217e-14
-3.14465e-15
4.26326e-14
2.30282e-14
1.32026e-15
-1.76348e-14
-5.39347e-15
-5.78517e-15
1.22413e-14
3.18456e-14
-9.12196e-16
2.84217e-14
3.38152e-14
0
0
-7.10543e-15
-6.31116e-15
2.37206e-15
-6.003e-15
0
2.84217e-14
-7.10543e-15
1.76348e-14
3.18456e-14
-7.10543e-15
-1.22413e-14
2.49978e-14
-1.42109e-14
-5.39347e-15
1.42109e-14
3.96078e-15
1.42109e-14
3.38152e-14
-9.12196e-16
1.96043e-14
1.96043e-14
0
0
-3.42392e-15
-1.06581e-14
-2.10372e-15
-3.18456e-14
-1.06581e-14
-1.77689e-14
-7.65664e-15
-2.10372e-15
-1.30248e-14
-1.42109e-14
1.76348e-14
2.84217e-14
-1.42109e-14
-3.42392e-15
-1.22413e-14
-1.68514e-14
-8.81739e-15
-8.81739e-15
-3.55271e-15
1.42109e-14
1.07869e-14
4.08063e-16
0
0
-7.10543e-15
-3.42392e-15
8.81739e-15
-7.10543e-15
-2.84217e-14
2.64522e-14
-9.12196e-16
0
2.64522e-14
6.19323e-15
1.30248e-14
8.20785e-15
2.84217e-14
-2.84217e-14
-1.42109e-14
-2.30282e-14
-3.26291e-14
-1.86758e-14
0
-2.10372e-15
-1.02501e-14
1.07869e-14
0
-5.78517e-15
3.42392e-15
2.42143e-14
7.51349e-15
8.81739e-15
-2.10372e-15
-2.23245e-15
2.84217e-14
0
-7.10543e-15
-2.84217e-14
-2.84217e-14
-1.90838e-14
-2.00068e-14
2.10372e-15
-7.51349e-15
1.84763e-14
0
3.69525e-14
-1.20982e-14
-2.37206e-15
-1.42109e-14
-1.53969e-14
-1.31084e-14
2.84217e-14
5.51213e-16
-4.14465e-14
-6.55421e-15
2.84217e-14
-5.51213e-16
0
-5.51213e-16
1.30248e-14
-7.65664e-15
-3.69525e-14
-2.13163e-14
-1.20982e-14
6.38286e-15
-3.16131e-14
0
-1.61832e-14
0
8.15902e-15
-3.87295e-14
0
2.84217e-14
2.02627e-14
0
-8.15902e-15
-4.90373e-14
-8.15902e-15
2.84217e-14
0
0
-4.86844e-14
-6.32263e-14
2.84217e-14
0
1.63596e-14
-2.84217e-14
-2.41242e-14
-3.8335e-14
-2.19754e-14
3.05705e-14
1.42109e-14
9.91333e-15
-2.84217e-14
-2.84217e-14
-2.84217e-14
0
-1.85084e-14
2.41242e-14
0
1.42109e-14
2.84217e-14
0
1.81139e-14
6.44629e-15
6.44629e-15
4.47813e-14
1.63596e-14
-2.84217e-14
-3.8335e-14
-9.91333e-15
-9.91333e-15
0
-2.84217e-14
-4.29753e-15
2.84217e-14
0
2.84217e-14
0
4.29753e-15
0
-8.15902e-15
0
1.63596e-14
2.84217e-14
-9.91333e-15
0
0
0
-2.84217e-14
-2.84217e-14
4.26326e-14
1.42109e-14
-4.29753e-15
-2.84217e-14
-9.91333e-15
-1.63596e-14
-2.02627e-14
3.8335e-14
8.52651e-14
2.02627e-14
0
-1.20621e-14
-2.84217e-14
-9.91333e-15
-1.42109e-14
-2.84217e-14
-4.29753e-15
1.42109e-14
0
0
-1.85084e-14
7.76456e-15
2.41242e-14
4.47813e-14
0
0
0
9.08213e-15
-8.15902e-15
-2.06156e-14
2.14876e-15
-1.20621e-14
0
0
-9.91333e-15
4.29753e-15
9.91333e-15
5.68434e-14
2.84217e-14
3.27192e-14
-1.63596e-14
2.84217e-14
4.47813e-14
0
0
-3.05705e-14
-1.81139e-14
-4.07951e-15
0
0
0
4.29753e-15
0
2.84217e-14
9.91333e-15
0
2.84217e-14
9.91333e-15
7.76456e-15
-4.47813e-14
-1.63596e-14
0
2.84217e-14
2.84217e-14
2.84217e-14
0
-4.07951e-15
-1.03078e-14
0
1.85084e-14
1.42109e-14
4.29753e-15
3.27192e-14
0
-2.06571e-14
2.41242e-14
0
1.63596e-14
0
1.63596e-14
0
-2.84217e-14
0
-4.29753e-15
-5.43418e-14
2.02627e-14
6.38286e-15
0
2.84217e-14
2.41242e-14
2.84217e-14
5.68434e-14
2.84217e-14
-2.84217e-14