# vtk DataFile Version 2.0
track0
ASCII
DATASET POLYDATA
POINTS 1720 float
-1.001 -0.05 0.0011
-1.0008 -0.05 0.0011
-1.0006 -0.05 0.0011
-1.0004 -0.05 0.0011
-1.0002 -0.05 0.0011
-1 -0.05 0.0011
-0.8 -0.05 0.0011
-0.6 -0.05 0.0011
-0.4 -0.05 0.0011
-0.2 -0.05 0.0011
0 -0.05 0.0011
0.2 -0.05 0.0011
0.4 -0.05 0.0011
0.6 -0.05 0.0011
0.8 -0.05 0.0011
1 -0.05 0.0011
1.2 -0.05 0.0011
1.4 -0.05 0.0011
1.6 -0.05 0.0011
1.8 -0.05 0.0011
2 -0.05 0.0011
2.2 -0.05 0.0011
2.4 -0.05 0.0011
2.6 -0.05 0.0011
2.8 -0.05 0.0011
3 -0.05 0.0011
3.2 -0.05 0.0011
3.4 -0.05 0.0011
3.6 -0.05 0.0011
3.8 -0.05 0.0011
4 -0.05 0.0011
4.2 -0.05 0.0011
4.4 -0.05 0.0011
4.6 -0.05 0.0011
4.8 -0.05 0.0011
5 -0.05 0.0011
5.2 -0.05 0.0011
5.4 -0.05 0.0011
5.6 -0.05 0.0011
5.8 -0.05 0.0011
6 -0.05 0.0011
6.2 -0.05 0.0011
6.4 -0.05 0.0011
6.6 -0.05 0.0011
6.8 -0.05 0.0011
7 -0.05 0.0011
7.2 -0.05 0.0011
7.4 -0.05 0.0011
7.6 -0.05 0.0011
7.8 -0.05 0.0011
8 -0.05 0.0011
8.2 -0.05 0.0011
8.4 -0.05 0.0011
8.6 -0.05 0.0011
8.8 -0.05 0.0011
9 -0.05 0.0011
9.2 -0.05 0.0011
9.4 -0.05 0.0011
9.6 -0.05 0.0011
9.8 -0.05 0.0011
10 -0.05 0.0011
10.2 -0.05 0.0011
10.4 -0.05 0.0011
10.6 -0.05 0.0011
10.8 -0.05 0.0011
11 -0.05 0.0011
11.2 -0.05 0.0011
11.4 -0.05 0.0011
11.6 -0.05 0.0011
11.8 -0.05 0.0011
12 -0.05 0.0011
12.2 -0.05 0.0011
12.4 -0.05 0.0011
12.6 -0.05 0.0011
12.8 -0.05 0.0011
13 -0.05 0.0011
13.2 -0.05 0.0011
13.4 -0.05 0.0011
13.6 -0.05 0.0011
13.8 -0.05 0.0011
14 -0.05 0.0011
14.2 -0.05 0.0011
14.4 -0.05 0.0011
14.6 -0.05 0.0011
14.8 -0.05 0.0011
15 -0.05 0.0011
-1.001 -0.05 0.0537316
-1.0008 -0.05 0.0537316
-1.0006 -0.05 0.0537316
-1.0004 -0.05 0.0537316
-1.0002 -0.05 0.0537316
-1 -0.05 0.0537316
-0.8 -0.05 0.0537316
-0.6 -0.05 0.0537316
-0.4 -0.05 0.0537316
-0.2 -0.05 0.0537316
0 -0.05 0.0537316
0.2 -0.05 0.0537316
0.4 -0.05 0.0537316
0.6 -0.05 0.0537316
0.8 -0.05 0.0537316
1 -0.05 0.0537316
1.2 -0.05 0.0537316
1.4 -0.05 0.0537316
1.6 -0.05 0.0537316
1.8 -0.05 0.0537316
2 -0.05 0.0537316
2.2 -0.05 0.0537316
2.4 -0.05 0.0537316
2.6 -0.05 0.0537316
2.8 -0.05 0.0537316
3 -0.05 0.0537316
3.2 -0.05 0.0537316
3.4 -0.05 0.0537316
3.6 -0.05 0.0537316
3.8 -0.05 0.0537316
4 -0.05 0.0537316
4.2 -0.05 0.0537316
4.4 -0.05 0.0537316
4.6 -0.05 0.0537316
4.8 -0.05 0.0537316
5 -0.05 0.0537316
5.2 -0.05 0.0537316
5.4 -0.05 0.0537316
5.6 -0.05 0.0537316
5.8 -0.05 0.0537316
6 -0.05 0.0537316
6.2 -0.05 0.0537316
6.4 -0.05 0.0537316
6.6 -0.05 0.0537316
6.8 -0.05 0.0537316
7 -0.05 0.0537316
7.2 -0.05 0.0537316
7.4 -0.05 0.0537316
7.6 -0.05 0.0537316
7.8 -0.05 0.0537316
8 -0.05 0.0537316
8.2 -0.05 0.0537316
8.4 -0.05 0.0537316
8.6 -0.05 0.0537316
8.8 -0.05 0.0537316
9 -0.05 0.0537316
9.2 -0.05 0.0537316
9.4 -0.05 0.0537316
9.6 -0.05 0.0537316
9.8 -0.05 0.0537316
10 -0.05 0.0537316
10.2 -0.05 0.0537316
10.4 -0.05 0.0537316
10.6 -0.05 0.0537316
10.8 -0.05 0.0537316
11 -0.05 0.0537316
11.2 -0.05 0.0537316
11.4 -0.05 0.0537316
11.6 -0.05 0.0537316
11.8 -0.05 0.0537316
12 -0.05 0.0537316
12.2 -0.05 0.0537316
12.4 -0.05 0.0537316
12.6 -0.05 0.0537316
12.8 -0.05 0.0537316
13 -0.05 0.0537316
13.2 -0.05 0.0537316
13.4 -0.05 0.0537316
13.6 -0.05 0.0537316
13.8 -0.05 0.0537316
14 -0.05 0.0537316
14.2 -0.05 0.0537316
14.4 -0.05 0.0537316
14.6 -0.05 0.0537316
14.8 -0.05 0.0537316
15 -0.05 0.0537316
-1.001 -0.05 0.106363
-1.0008 -0.05 0.106363
-1.0006 -0.05 0.106363
-1.0004 -0.05 0.106363
-1.0002 -0.05 0.106363
-1 -0.05 0.106363
-0.8 -0.05 0.106363
-0.6 -0.05 0.106363
-0.4 -0.05 0.106363
-0.2 -0.05 0.106363
0 -0.05 0.106363
0.2 -0.05 0.106363
0.4 -0.05 0.106363
0.6 -0.05 0.106363
0.8 -0.05 0.106363
1 -0.05 0.106363
1.2 -0.05 0.106363
1.4 -0.05 0.106363
1.6 -0.05 0.106363
1.8 -0.05 0.106363
2 -0.05 0.106363
2.2 -0.05 0.106363
2.4 -0.05 0.106363
2.6 -0.05 0.106363
2.8 -0.05 0.106363
3 -0.05 0.106363
3.2 -0.05 0.106363
3.4 -0.05 0.106363
3.6 -0.05 0.106363
3.8 -0.05 0.106363
4 -0.05 0.106363
4.2 -0.05 0.106363
4.4 -0.05 0.106363
4.6 -0.05 0.106363
4.8 -0.05 0.106363
5 -0.05 0.106363
5.2 -0.05 0.106363
5.4 -0.05 0.106363
5.6 -0.05 0.106363
5.8 -0.05 0.106363
6 -0.05 0.106363
6.2 -0.05 0.106363
6.4 -0.05 0.106363
6.6 -0.05 0.106363
6.8 -0.05 0.106363
7 -0.05 0.106363
7.2 -0.05 0.106363
7.4 -0.05 0.106363
7.6 -0.05 0.106363
7.8 -0.05 0.106363
8 -0.05 0.106363
8.2 -0.05 0.106363
8.4 -0.05 0.106363
8.6 -0.05 0.106363
8.8 -0.05 0.106363
9 -0.05 0.106363
9.2 -0.05 0.106363
9.4 -0.05 0.106363
9.6 -0.05 0.106363
9.8 -0.05 0.106363
10 -0.05 0.106363
10.2 -0.05 0.106363
10.4 -0.05 0.106363
10.6 -0.05 0.106363
10.8 -0.05 0.106363
11 -0.05 0.106363
11.2 -0.05 0.106363
11.4 -0.05 0.106363
11.6 -0.05 0.106363
11.8 -0.05 0.106363
12 -0.05 0.106363
12.2 -0.05 0.106363
12.4 -0.05 0.106363
12.6 -0.05 0.106363
12.8 -0.05 0.106363
13 -0.05 0.106363
13.2 -0.05 0.106363
13.4 -0.05 0.106363
13.6 -0.05 0.106363
13.8 -0.05 0.106363
14 -0.05 0.106363
14.2 -0.05 0.106363
14.4 -0.05 0.106363
14.6 -0.05 0.106363
14.8 -0.05 0.106363
15 -0.05 0.106363
-1.001 -0.05 0.158995
-1.0008 -0.05 0.158995
-1.0006 -0.05 0.158995
-1.0004 -0.05 0.158995
-1.0002 -0.05 0.158995
-1 -0.05 0.158995
-0.8 -0.05 0.158995
-0.6 -0.05 0.158995
-0.4 -0.05 0.158995
-0.2 -0.05 0.158995
0 -0.05 0.158995
0.2 -0.05 0.158995
0.4 -0.05 0.158995
0.6 -0.05 0.158995
0.8 -0.05 0.158995
1 -0.05 0.158995
1.2 -0.05 0.158995
1.4 -0.05 0.158995
1.6 -0.05 0.158995
1.8 -0.05 0.158995
2 -0.05 0.158995
2.2 -0.05 0.158995
2.4 -0.05 0.158995
2.6 -0.05 0.158995
2.8 -0.05 0.158995
3 -0.05 0.158995
3.2 -0.05 0.158995
3.4 -0.05 0.158995
3.6 -0.05 0.158995
3.8 -0.05 0.158995
4 -0.05 0.158995
4.2 -0.05 0.158995
4.4 -0.05 0.158995
4.6 -0.05 0.158995
4.8 -0.05 0.158995
5 -0.05 0.158995
5.2 -0.05 0.158995
5.4 -0.05 0.158995
5.6 -0.05 0.158995
5.8 -0.05 0.158995
6 -0.05 0.158995
6.2 -0.05 0.158995
6.4 -0.05 0.158995
6.6 -0.05 0.158995
6.8 -0.05 0.158995
7 -0.05 0.158995
7.2 -0.05 0.158995
7.4 -0.05 0.158995
7.6 -0.05 0.158995
7.8 -0.05 0.158995
8 -0.05 0.158995
8.2 -0.05 0.158995
8.4 -0.05 0.158995
8.6 -0.05 0.158995
8.8 -0.05 0.158995
9 -0.05 0.158995
9.2 -0.05 0.158995
9.4 -0.05 0.158995
9.6 -0.05 0.158995
9.8 -0.05 0.158995
10 -0.05 0.158995
10.2 -0.05 0.158995
10.4 -0.05 0.158995
10.6 -0.05 0.158995
10.8 -0.05 0.158995
11 -0.05 0.158995
11.2 -0.05 0.158995
11.4 -0.05 0.158995
11.6 -0.05 0.158995
11.8 -0.05 0.158995
12 -0.05 0.158995
12.2 -0.05 0.158995
12.4 -0.05 0.158995
12.6 -0.05 0.158995
12.8 -0.05 0.158995
13 -0.05 0.158995
13.2 -0.05 0.158995
13.4 -0.05 0.158995
13.6 -0.05 0.158995
13.8 -0.05 0.158995
14 -0.05 0.158995
14.2 -0.05 0.158995
14.4 -0.05 0.158995
14.6 -0.05 0.158995
14.8 -0.05 0.158995
15 -0.05 0.158995
-1.001 -0.05 0.211626
-1.0008 -0.05 0.211626
-1.0006 -0.05 0.211626
-1.0004 -0.05 0.211626
-1.0002 -0.05 0.211626
-1 -0.05 0.211626
-0.8 -0.05 0.211626
-0.6 -0.05 0.211626
-0.4 -0.05 0.211626
-0.2 -0.05 0.211626
0 -0.05 0.211626
0.2 -0.05 0.211626
0.4 -0.05 0.211626
0.6 -0.05 0.211626
0.8 -0.05 0.211626
1 -0.05 0.211626
1.2 -0.05 0.211626
1.4 -0.05 0.211626
1.6 -0.05 0.211626
1.8 -0.05 0.211626
2 -0.05 0.211626
2.2 -0.05 0.211626
2.4 -0.05 0.211626
2.6 -0.05 0.211626
2.8 -0.05 0.211626
3 -0.05 0.211626
3.2 -0.05 0.211626
3.4 -0.05 0.211626
3.6 -0.05 0.211626
3.8 -0.05 0.211626
4 -0.05 0.211626
4.2 -0.05 0.211626
4.4 -0.05 0.211626
4.6 -0.05 0.211626
4.8 -0.05 0.211626
5 -0.05 0.211626
5.2 -0.05 0.211626
5.4 -0.05 0.211626
5.6 -0.05 0.211626
5.8 -0.05 0.211626
6 -0.05 0.211626
6.2 -0.05 0.211626
6.4 -0.05 0.211626
6.6 -0.05 0.211626
6.8 -0.05 0.211626
7 -0.05 0.211626
7.2 -0.05 0.211626
7.4 -0.05 0.211626
7.6 -0.05 0.211626
7.8 -0.05 0.211626
8 -0.05 0.211626
8.2 -0.05 0.211626
8.4 -0.05 0.211626
8.6 -0.05 0.211626
8.8 -0.05 0.211626
9 -0.05 0.211626
9.2 -0.05 0.211626
9.4 -0.05 0.211626
9.6 -0.05 0.211626
9.8 -0.05 0.211626
10 -0.05 0.211626
10.2 -0.05 0.211626
10.4 -0.05 0.211626
10.6 -0.05 0.211626
10.8 -0.05 0.211626
11 -0.05 0.211626
11.2 -0.05 0.211626
11.4 -0.05 0.211626
11.6 -0.05 0.211626
11.8 -0.05 0.211626
12 -0.05 0.211626
12.2 -0.05 0.211626
12.4 -0.05 0.211626
12.6 -0.05 0.211626
12.8 -0.05 0.211626
13 -0.05 0.211626
13.2 -0.05 0.211626
13.4 -0.05 0.211626
13.6 -0.05 0.211626
13.8 -0.05 0.211626
14 -0.05 0.211626
14.2 -0.05 0.211626
14.4 -0.05 0.211626
14.6 -0.05 0.211626
14.8 -0.05 0.211626
15 -0.05 0.211626
-1.001 -0.05 0.264258
-1.0008 -0.05 0.264258
-1.0006 -0.05 0.264258
-1.0004 -0.05 0.264258
-1.0002 -0.05 0.264258
-1 -0.05 0.264258
-0.8 -0.05 0.264258
-0.6 -0.05 0.264258
-0.4 -0.05 0.264258
-0.2 -0.05 0.264258
0 -0.05 0.264258
0.2 -0.05 0.264258
0.4 -0.05 0.264258
0.6 -0.05 0.264258
0.8 -0.05 0.264258
1 -0.05 0.264258
1.2 -0.05 0.264258
1.4 -0.05 0.264258
1.6 -0.05 0.264258
1.8 -0.05 0.264258
2 -0.05 0.264258
2.2 -0.05 0.264258
2.4 -0.05 0.264258
2.6 -0.05 0.264258
2.8 -0.05 0.264258
3 -0.05 0.264258
3.2 -0.05 0.264258
3.4 -0.05 0.264258
3.6 -0.05 0.264258
3.8 -0.05 0.264258
4 -0.05 0.264258
4.2 -0.05 0.264258
4.4 -0.05 0.264258
4.6 -0.05 0.264258
4.8 -0.05 0.264258
5 -0.05 0.264258
5.2 -0.05 0.264258
5.4 -0.05 0.264258
5.6 -0.05 0.264258
5.8 -0.05 0.264258
6 -0.05 0.264258
6.2 -0.05 0.264258
6.4 -0.05 0.264258
6.6 -0.05 0.264258
6.8 -0.05 0.264258
7 -0.05 0.264258
7.2 -0.05 0.264258
7.4 -0.05 0.264258
7.6 -0.05 0.264258
7.8 -0.05 0.264258
8 -0.05 0.264258
8.2 -0.05 0.264258
8.4 -0.05 0.264258
8.6 -0.05 0.264258
8.8 -0.05 0.264258
9 -0.05 0.264258
9.2 -0.05 0.264258
9.4 -0.05 0.264258
9.6 -0.05 0.264258
9.8 -0.05 0.264258
10 -0.05 0.264258
10.2 -0.05 0.264258
10.4 -0.05 0.264258
10.6 -0.05 0.264258
10.8 -0.05 0.264258
11 -0.05 0.264258
11.2 -0.05 0.264258
11.4 -0.05 0.264258
11.6 -0.05 0.264258
11.8 -0.05 0.264258
12 -0.05 0.264258
12.2 -0.05 0.264258
12.4 -0.05 0.264258
12.6 -0.05 0.264258
12.8 -0.05 0.264258
13 -0.05 0.264258
13.2 -0.05 0.264258
13.4 -0.05 0.264258
13.6 -0.05 0.264258
13.8 -0.05 0.264258
14 -0.05 0.264258
14.2 -0.05 0.264258
14.4 -0.05 0.264258
14.6 -0.05 0.264258
14.8 -0.05 0.264258
15 -0.05 0.264258
-1.001 -0.05 0.316889
-1.0008 -0.05 0.316889
-1.0006 -0.05 0.316889
-1.0004 -0.05 0.316889
[...]
POINT_DATA 1720
 FIELD attributes 2
p 1 1720 float
-1.64308e-13 -1.643e-13 -1.64292e-13 -1.64284e-13 -1.64276e-13 -1.64268e-13 -1.61864e-13 -1.595e-13 -1.57137e-13 -1.54774e-13 -1.52329e-13 -1.57889e-13 -1.63467e-13 -1.69045e-13 -1.74623e-13 -1.80085e-13 -1.82703e-13 -1.85293e-13 -1.87883e-13 -1.90474e-13 -1.93105e-13 -1.86572e-13 -1.80009e-13 -1.73445e-13 -1.66882e-13 -1.60436e-13 -1.51907e-13 -1.43387e-13 -1.34867e-13 -1.26347e-13 -1.17874e-13 -1.15385e-13 -1.12915e-13 -1.10445e-13 -1.07975e-13 -1.05679e-13 -1.07644e-13 -1.09608e-13 -1.11572e-13 -1.13535e-13 -1.15268e-13 -1.12553e-13 -1.0981e-13 -1.07067e-13 -1.04324e-13 -1.01385e-13 -9.65276e-14 -9.16983e-14 -8.68691e-14 -8.20398e-14 -7.74688e-14 -7.90124e-14 -8.05816e-14 -8.21509e-14 -8.37202e-14 -8.53131e-14 -8.67508e-14 -8.81451e-14 -8.95394e-14 -9.09337e-14 -9.21209e-14 -8.69567e-14 -8.17664e-14 -7.65761e-14 -7.13857e-14 -6.64296e-14 -5.80403e-14 -4.96409e-14 -4.12416e-14 -3.28422e-14 -2.46388e-14 -2.03253e-14 -1.60541e-14 -1.17829e-14 -7.51176e-15 -3.02424e-15 -3.55768e-15 -4.11649e-15 -4.6753e-15 -5.23411e-15 -5.75682e-15 -5.4142e-15 -5.07386e-15 -4.73353e-15 -4.39319e-15 -4.05833e-15
-1.64603e-13 -1.64595e-13 -1.64586e-13 -1.64578e-13 -1.6457e-13 -1.64562e-13 -1.60334e-13 -1.57971e-13 -1.55607e-13 -1.53244e-13 -1.52595e-13 -1.57315e-13 -1.62893e-13 -1.68471e-13 -1.7405e-13 -1.79803e-13 -1.8365e-13 -1.8624e-13 -1.8883e-13 -1.91421e-13 -1.92652e-13 -1.87528e-13 -1.80965e-13 -1.74401e-13 -1.67838e-13 -1.60257e-13 -1.51334e-13 -1.42814e-13 -1.34294e-13 -1.25774e-13 -1.17635e-13 -1.14301e-13 -1.11831e-13 -1.09361e-13 -1.06891e-13 -1.05529e-13 -1.07579e-13 -1.09542e-13 -1.11506e-13 -1.1347e-13 -1.15307e-13 -1.13813e-13 -1.1107e-13 -1.08328e-13 -1.05585e-13 -1.01654e-13 -9.55554e-14 -9.07261e-14 -8.58968e-14 -8.10676e-14 -7.79834e-14 -7.83523e-14 -7.99215e-14 -8.14908e-14 -8.30601e-14 -8.53853e-14 -8.87163e-14 -9.01106e-14 -9.15049e-14 -9.28992e-14 -9.16667e-14 -8.76772e-14 -8.24869e-14 -7.72965e-14 -7.21062e-14 -6.61904e-14 -5.82781e-14 -4.98787e-14 -4.14793e-14 -3.30799e-14 -2.47463e-14 -1.85669e-14 -1.42958e-14 -1.00246e-14 -5.75341e-15 -3.34751e-15 -2.74052e-15 -3.29933e-15 -3.85814e-15 -4.41695e-15 -5.89826e-15 -5.42948e-15 -5.08914e-15 -4.74881e-15 -4.40847e-15 -3.84972e-15
-1.64897e-13 -1.64889e-13 -1.64881e-13 -1.64873e-13 -1.64864e-13 -1.64856e-13 -1.606e-13 -1.58237e-13 -1.55874e-13 -1.53511e-13 -1.52862e-13 -1.57033e-13 -1.62611e-13 -1.68189e-13 -1.73767e-13 -1.79521e-13 -1.83198e-13 -1.85788e-13 -1.88378e-13 -1.90968e-13 -1.922e-13 -1.8735e-13 -1.80786e-13 -1.74223e-13 -1.67659e-13 -1.60079e-13 -1.51096e-13 -1.42576e-13 -1.34055e-13 -1.25535e-13 -1.17397e-13 -1.14151e-13 -1.11681e-13 -1.09211e-13 -1.06741e-13 -1.05378e-13 -1.07617e-13 -1.09581e-13 -1.11545e-13 -1.13508e-13 -1.15346e-13 -1.14082e-13 -1.11339e-13 -1.08596e-13 -1.05853e-13 -1.01922e-13 -9.607e-14 -9.12407e-14 -8.64115e-14 -8.15822e-14 -7.8498e-14 -7.84245e-14 -7.99938e-14 -8.15631e-14 -8.31324e-14 -8.54576e-14 -8.82621e-14 -8.96563e-14 -9.10506e-14 -9.24449e-14 -9.12124e-14 -8.7438e-14 -8.22477e-14 -7.70573e-14 -7.1867e-14 -6.59511e-14 -5.83856e-14 -4.99862e-14 -4.15868e-14 -3.31874e-14 -2.48539e-14 -1.88902e-14 -1.4619e-14 -1.03479e-14 -6.07668e-15 -3.67078e-15 -2.88196e-15 -3.44077e-15 -3.99958e-15 -4.55839e-15 -6.0397e-15 -5.22087e-15 -4.88054e-15 -4.5402e-15 -4.19987e-15 -3.64112e-15
-1.65191e-13 -1.65183e-13 -1.65175e-13 -1.65167e-13 -1.65159e-13 -1.65151e-13 -1.60867e-13 -1.58504e-13 -1.56141e-13 -1.53777e-13 -1.53128e-13 -1.56751e-13 -1.62329e-13 -1.67907e-13 -1.73485e-13 -1.79239e-13 -1.82745e-13 -1.85335e-13 -1.87926e-13 -1.90516e-13 -1.91747e-13 -1.87171e-13 -1.80608e-13 -1.74044e-13 -1.67481e-13 -1.599e-13 -1.50857e-13 -1.42337e-13 -1.33817e-13 -1.25297e-13 -1.17158e-13 -1.14001e-13 -1.11531e-13 -1.09061e-13 -1.0659e-13 -1.05228e-13 -1.07656e-13 -1.09619e-13 -1.11583e-13 -1.13547e-13 -1.15384e-13 -1.1435e-13 -1.11607e-13 -1.08864e-13 -1.06122e-13 -1.0219e-13 -9.65846e-14 -9.17554e-14 -8.69261e-14 -8.20968e-14 -7.90127e-14 -7.84968e-14 -8.00661e-14 -8.16353e-14 -8.32046e-14 -8.55298e-14 -8.78078e-14 -8.92021e-14 -9.05964e-14 -9.19906e-14 -9.07581e-14 -8.71988e-14 -8.20085e-14 -7.68181e-14 -7.16278e-14 -6.57119e-14 -5.84932e-14 -5.00938e-14 -4.16944e-14 -3.3295e-14 -2.49614e-14 -1.92135e-14 -1.49423e-14 -1.06711e-14 -6.39996e-15 -3.99406e-15 -3.0234e-15 -3.58221e-15 -4.14102e-15 -4.69983e-15 -6.18115e-15 -5.01227e-15 -4.67193e-15 -4.3316e-15 -3.99126e-15 -3.43251e-15
-1.65485e-13 -1.65477e-13 -1.65469e-13 -1.65461e-13 -1.65453e-13 -1.65445e-13 -1.6114e-13 -1.5877e-13 -1.56407e-13 -1.54044e-13 -1.53395e-13 -1.5659e-13 -1.62047e-13 -1.67625e-13 -1.73203e-13 -1.78956e-13 -1.8233e-13 -1.84883e-13 -1.87473e-13 -1.90063e-13 -1.91295e-13 -1.86932e-13 -1.80429e-13 -1.73866e-13 -1.67302e-13 -1.59721e-13 -1.50632e-13 -1.42099e-13 -1.33579e-13 -1.25058e-13 -1.1692e-13 -1.13831e-13 -1.1138e-13 -1.0891e-13 -1.0644e-13 -1.05078e-13 -1.07653e-13 -1.09658e-13 -1.11622e-13 -1.13585e-13 -1.15423e-13 -1.14568e-13 -1.11876e-13 -1.09133e-13 -1.0639e-13 -1.02459e-13 -9.70449e-14 -9.227e-14 -8.74407e-14 -8.26115e-14 -7.95273e-14 -7.86668e-14 -8.01383e-14 -8.17076e-14 -8.32769e-14 -8.56021e-14 -8.74698e-14 -8.87478e-14 -9.01421e-14 -9.15364e-14 -9.03038e-14 -8.69121e-14 -8.17693e-14 -7.65789e-14 -7.13886e-14 -6.54727e-14 -5.85241e-14 -5.02013e-14 -4.18019e-14 -3.34025e-14 -2.50689e-14 -1.94891e-14 -1.52656e-14 -1.09944e-14 -6.72323e-15 -4.31733e-15 -3.20501e-15 -3.72366e-15 -4.28247e-15 -4.84128e-15 -6.32259e-15 -4.88099e-15 -4.46333e-15 -4.12299e-15 -3.78266e-15 -3.22391e-15
-1.6578e-13 -1.65772e-13 -1.65763e-13 -1.65755e-13 -1.65747e-13 -1.65739e-13 -1.61434e-13 -1.59037e-13 -1.56674e-13 -1.5431e-13 -1.53662e-13 -1.56856e-13 -1.61764e-13 -1.67343e-13 -1.72921e-13 -1.78674e-13 -1.82048e-13 -1.8443e-13 -1.87021e-13 -1.89611e-13 -1.90842e-13 -1.8648e-13 -1.80251e-13 -1.73687e-13 -1.67124e-13 -1.59543e-13 -1.50453e-13 -1.4186e-13 -1.3334e-13 -1.2482e-13 -1.16682e-13 -1.13592e-13 -1.1123e-13 -1.0876e-13 -1.0629e-13 -1.04927e-13 -1.07502e-13 -1.09697e-13 -1.1166e-13 -1.13624e-13 -1.15461e-13 -1.14606e-13 -1.12144e-13 -1.09401e-13 -1.06658e-13 -1.02727e-13 -9.73133e-14 -9.27846e-14 -8.79553e-14 -8.31261e-14 -8.00419e-14 -7.91814e-14 -8.02106e-14 -8.17799e-14 -8.33491e-14 -8.56744e-14 -8.75421e-14 -8.82935e-14 -8.96878e-14 -9.10821e-14 -8.98495e-14 -8.64578e-14 -8.153e-14 -7.63397e-14 -7.11494e-14 -6.52335e-14 -5.82849e-14 -5.03088e-14 -4.19094e-14 -3.351e-14 -2.51765e-14 -1.95966e-14 -1.55889e-14 -1.13177e-14 -7.0465e-15 -4.64061e-15 -3.52829e-15 -3.8651e-15 -4.42391e-15 -4.98272e-15 -6.46403e-15 -5.02243e-15 -4.25472e-15 -3.91439e-15 -3.57405e-15 -3.0153e-15
-1.66074e-13 -1.66066e-13 -1.66058e-13 -1.6605e-13 -1.66041e-13 -1.66033e-13 -1.61728e-13 -1.59304e-13 -1.5694e-13 -1.54577e-13 -1.53928e-13 -1.57123e-13 -1.61482e-13 -1.6706e-13 -1.72639e-13 -1.78392e-13 -1.81766e-13 -1.83978e-13 -1.86568e-13 -1.89158e-13 -1.9039e-13 -1.86027e-13 -1.80072e-13 -1.73508e-13 -1.66945e-13 -1.59364e-13 -1.50275e-13 -1.41622e-13 -1.33102e-13 -1.24582e-13 -1.16443e-13 -1.13354e-13 -1.1108e-13 -1.0861e-13 -1.06139e-13 -1.04777e-13 -1.07352e-13 -1.09735e-13 -1.11699e-13 -1.13663e-13 -1.155e-13 -1.14645e-13 -1.12412e-13 -1.0967e-13 -1.06927e-13 -1.02996e-13 -9.75817e-14 -9.32992e-14 -8.847e-14 -8.36407e-14 -8.05565e-14 -7.9696e-14 -8.02828e-14 -8.18521e-14 -8.34214e-14 -8.57466e-14 -8.76143e-14 -8.78392e-14 -8.92335e-14 -9.06278e-14 -8.93953e-14 -8.60035e-14 -8.12908e-14 -7.61005e-14 -7.09102e-14 -6.49943e-14 -5.80457e-14 -5.04164e-14 -4.2017e-14 -3.36176e-14 -2.5284e-14 -1.97042e-14 -1.59121e-14 -1.1641e-14 -7.36978e-15 -4.96388e-15 -3.85156e-15 -4.00654e-15 -4.56535e-15 -5.12416e-15 -6.60548e-15 -5.16388e-15 -4.04612e-15 -3.70578e-15 -3.36544e-15 -2.8067e-15
-1.66368e-13 -1.6636e-13 -1.66352e-13 -1.66344e-13 -1.66336e-13 -1.66328e-13 -1.62023e-13 -1.5957e-13 -1.57207e-13 -1.54844e-13 -1.54195e-13 -1.57389e-13 -1.612e-13 -1.66778e-13 -1.72356e-13 -1.7811e-13 -1.81484e-13 -1.83526e-13 -1.86116e-13 -1.88706e-13 -1.89937e-13 -1.85575e-13 -1.79893e-13 -1.7333e-13 -1.66766e-13 -1.59186e-13 -1.50096e-13 -1.41383e-13 -1.32863e-13 -1.24343e-13 -1.16205e-13 -1.13115e-13 -1.10929e-13 -1.08459e-13 -1.05989e-13 -1.04627e-13 -1.07202e-13 -1.09774e-13 -1.11737e-13 -1.13701e-13 -1.15539e-13 -1.14683e-13 -1.12681e-13 -1.09938e-13 -1.07195e-13 -1.03264e-13 -9.78501e-14 -9.38139e-14 -8.89846e-14 -8.41553e-14 -8.10712e-14 -8.02106e-14 -8.03551e-14 -8.19244e-14 -8.34937e-14 -8.58189e-14 -8.76866e-14 -8.73849e-14 -8.87792e-14 -9.01735e-14 -8.8941e-14 -8.55492e-14 -8.10516e-14 -7.58613e-14 -7.0671e-14 -6.47551e-14 -5.78065e-14 -5.05239e-14 -4.21245e-14 -3.37251e-14 -2.53915e-14 -1.98117e-14 -1.62354e-14 -1.19642e-14 -7.69305e-15 -5.28715e-15 -4.17483e-15 -4.14799e-15 -4.7068e-15 -5.26561e-15 -6.74692e-15 -5.30532e-15 -3.83751e-15 -3.49718e-15 -3.15684e-15 -2.59809e-15
-1.66662e-13 -1.66654e-13 -1.66646e-13 -1.66638e-13 -1.6663e-13 -1.66622e-13 -1.62317e-13 -1.59848e-13 -1.57474e-13 -1.5511e-13 -1.54461e-13 -1.57656e-13 -1.61149e-13 -1.66496e-13 -1.72074e-13 -1.77828e-13 -1.81202e-13 -1.83145e-13 -1.85663e-13 -1.88253e-13 -1.89485e-13 -1.85122e-13 -1.79599e-13 -1.73151e-13 -1.66588e-13 -1.59007e-13 -1.49918e-13 -1.4117e-13 -1.32625e-13 -1.24105e-13 -1.15966e-13 -1.12877e-13 -1.10742e-13 -1.08309e-13 -1.05839e-13 -1.04476e-13 -1.07051e-13 -1.09733e-13 -1.11776e-13 -1.1374e-13 -1.15577e-13 -1.14722e-13 -1.12853e-13 -1.10207e-13 -1.07464e-13 -1.03533e-13 -9.81186e-14 -9.42249e-14 -8.94992e-14 -8.467e-14 -8.15858e-14 -8.07253e-14 -8.06136e-14 -8.19966e-14 -8.35659e-14 -8.58911e-14 -8.77588e-14 -8.71523e-14 -8.83249e-14 -8.97192e-14 -8.84867e-14 -8.50949e-14 -8.07219e-14 -7.56221e-14 -7.04318e-14 -6.45159e-14 -5.75673e-14 -5.04855e-14 -4.2232e-14 -3.38326e-14 -2.54991e-14 -1.99192e-14 -1.64679e-14 -1.22875e-14 -8.01632e-15 -5.61043e-15 -4.49811e-15 -4.36596e-15 -4.84824e-15 -5.40705e-15 -6.88836e-15 -5.44676e-15 -3.77624e-15 -3.28857e-15 -2.94823e-15 -2.38949e-15
-1.66957e-13 -1.66949e-13 -1.6694e-13 -1.66932e-13 -1.66924e-13 -1.66916e-13 -1.62611e-13 -1.60143e-13 -1.5774e-13 -1.55377e-13 -1.54728e-13 -1.57923e-13 -1.61415e-13 -1.66214e-13 -1.71792e-13 -1.77546e-13 -1.8092e-13 -1.82863e-13 -1.85211e-13 -1.87801e-13 -1.89033e-13 -1.8467e-13 -1.79147e-13 -1.72973e-13 -1.66409e-13 -1.58829e-13 -1.49739e-13 -1.40991e-13 -1.32386e-13 -1.23866e-13 -1.15728e-13 -1.12638e-13 -1.10503e-13 -1.08159e-13 -1.05688e-13 -1.04326e-13 -1.06901e-13 -1.09582e-13 -1.11815e-13 -1.13778e-13 -1.15616e-13 -1.14761e-13 -1.12891e-13 -1.10475e-13 -1.07732e-13 -1.03801e-13 -9.8387e-14 -9.44933e-14 -9.00139e-14 -8.51846e-14 -8.21004e-14 -8.12399e-14 -8.11282e-14 -8.20689e-14 -8.36382e-14 -8.59634e-14 -8.78311e-14 -8.72245e-14 -8.78707e-14 -8.9265e-14 -8.80324e-14 -8.46407e-14 -8.02676e-14 -7.53829e-14 -7.01926e-14 -6.42767e-14 -5.73281e-14 -5.02463e-14 -4.23396e-14 -3.39402e-14 -2.56066e-14 -2.00268e-14 -1.65754e-14 -1.26108e-14 -8.3396e-15 -5.9337e-15 -4.82138e-15 -4.68924e-15 -4.98969e-15 -5.54849e-15 -7.02981e-15 -5.58821e-15 -3.91768e-15 -3.07996e-15 -2.73963e-15 -2.18088e-15
-1.67251e-13 -1.67243e-13 -1.67235e-13 -1.67227e-13 -1.67219e-13 -1.6721e-13 -1.62905e-13 -1.60437e-13 -1.58007e-13 -1.55643e-13 -1.54995e-13 -1.58189e-13 -1.61682e-13 -1.65932e-13 -1.7151e-13 -1.77263e-13 -1.80637e-13 -1.8258e-13 -1.84758e-13 -1.87349e-13 -1.8858e-13 -1.84217e-13 -1.78695e-13 -1.72794e-13 -1.66231e-13 -1.5865e-13 -1.4956e-13 -1.40813e-13 -1.32148e-13 -1.23628e-13 -1.15489e-13 -1.124e-13 -1.10265e-13 -1.08008e-13 -1.05538e-13 -1.04176e-13 -1.06751e-13 -1.09432e-13 -1.11853e-13 -1.13817e-13 -1.15654e-13 -1.14799e-13 -1.1293e-13 -1.10743e-13 -1.08001e-13 -1.04069e-13 -9.86554e-14 -9.47617e-14 -9.05285e-14 -8.56992e-14 -8.26151e-14 -8.17545e-14 -8.16428e-14 -8.21412e-14 -8.37104e-14 -8.60357e-14 -8.79034e-14 -8.72968e-14 -8.74164e-14 -8.88107e-14 -8.75781e-14 -8.41864e-14 -7.98133e-14 -7.51437e-14 -6.99534e-14 -6.40375e-14 -5.70889e-14 -5.00071e-14 -4.24471e-14 -3.40477e-14 -2.57141e-14 -2.01343e-14 -1.66829e-14 -1.29341e-14 -8.66287e-15 -6.25697e-15 -5.14466e-15 -5.01251e-15 -5.13113e-15 -5.68994e-15 -7.17125e-15 -5.72965e-15 -4.05913e-15 -2.87136e-15 -2.53102e-15 -1.97227e-15
-1.67545e-13 -1.67537e-13 -1.67529e-13 -1.67521e-13 -1.67513e-13 -1.67505e-13 -1.632e-13 -1.60731e-13 -1.58273e-13 -1.5591e-13 -1.55261e-13 -1.58456e-13 -1.61949e-13 -1.6565e-13 -1.71228e-13 -1.76981e-13 -1.80355e-13 -1.82298e-13 -1.84306e-13 -1.86896e-13 -1.88128e-13 -1.83765e-13 -1.78242e-13 -1.72616e-13 -1.66052e-13 -1.58471e-13 -1.49382e-13 -1.40634e-13 -1.31909e-13 -1.23389e-13 -1.15251e-13 -1.12162e-13 -1.10026e-13 -1.07858e-13 -1.05388e-13 -1.04025e-13 -1.066e-13 -1.09282e-13 -1.11892e-13 -1.13855e-13 -1.15693e-13 -1.14838e-13 -1.12968e-13 -1.11012e-13 -1.08269e-13 -1.04338e-13 -9.89238e-14 -9.50301e-14 -9.10431e-14 -8.62138e-14 -8.31297e-14 -8.22691e-14 -8.21574e-14 -8.22134e-14 -8.37827e-14 -8.61079e-14 -8.79756e-14 -8.73691e-14 -8.69621e-14 -8.83564e-14 -8.71238e-14 -8.37321e-14 -7.93591e-14 -7.49045e-14 -6.97142e-14 -6.37983e-14 -5.68496e-14 -4.97679e-14 -4.25546e-14 -3.41552e-14 -2.58217e-14 -2.02418e-14 -1.67905e-14 -1.32573e-14 -8.98614e-15 -6.58025e-15 -5.46793e-15 -5.33578e-15 -5.27257e-15 -5.83138e-15 -7.31269e-15 -5.87109e-15 -4.20057e-15 -2.66275e-15 -2.32242e-15 -1.76367e-15
-1.67839e-13 -1.67831e-13 -1.67823e-13 -1.67815e-13 -1.67807e-13 -1.67799e-13 -1.63494e-13 -1.61025e-13 -1.58557e-13 -1.56177e-13 -1.55528e-13 -1.58722e-13 -1.62215e-13 -1.65708e-13 -1.70946e-13 -1.76699e-13 -1.80073e-13 -1.82016e-13 -1.83959e-13 -1.86444e-13 -1.87675e-13 -1.83312e-13 -1.7779e-13 -1.72267e-13 -1.65873e-13 -1.58293e-13 -1.49203e-13 -1.40456e-13 -1.31708e-13 -1.23151e-13 -1.15012e-13 -1.11923e-13 -1.09788e-13 -1.07653e-13 -1.05237e-13 -1.03875e-13 -1.0645e-13 -1.09131e-13 -1.11813e-13 -1.13894e-13 -1.15731e-13 -1.14876e-13 -1.13007e-13 -1.11137e-13 -1.08537e-13 -1.04606e-13 -9.91923e-14 -9.52986e-14 -9.14049e-14 -8.67285e-14 -8.36443e-14 -8.27838e-14 -8.26721e-14 -8.25604e-14 -8.3855e-14 -8.61802e-14 -8.80479e-14 -8.74413e-14 -8.68347e-14 -8.79021e-14 -8.66696e-14 -8.32778e-14 -7.89048e-14 -7.45317e-14 -6.94749e-14 -6.35591e-14 -5.66104e-14 -4.95287e-14 -4.24469e-14 -3.42628e-14 -2.59292e-14 -2.03494e-14 -1.6898e-14 -1.34466e-14 -9.30942e-15 -6.90352e-15 -5.7912e-15 -5.65906e-15 -5.52691e-15 -5.97283e-15 -7.45414e-15 -6.01254e-15 -4.34202e-15 -2.67149e-15 -2.11381e-15 -1.55506e-15
-1.68134e-13 -1.68126e-13 -1.68117e-13 -1.68109e-13 -1.68101e-13 -1.68093e-13 -1.63788e-13 -1.6132e-13 -1.58851e-13 -1.56443e-13 -1.55794e-13 -1.58989e-13 -1.62482e-13 -1.65975e-13 -1.70663e-13 -1.76417e-13 -1.79791e-13 -1.81734e-13 -1.83677e-13 -1.85991e-13 -1.87223e-13 -1.8286e-13 -1.77337e-13 -1.71814e-13 -1.65695e-13 -1.58114e-13 -1.49025e-13 -1.40277e-13 -1.31529e-13 -1.22912e-13 -1.14774e-13 -1.11685e-13 -1.09549e-13 -1.07414e-13 -1.05087e-13 -1.03725e-13 -1.063e-13 -1.08981e-13 -1.11663e-13 -1.13933e-13 -1.1577e-13 -1.14915e-13 -1.13045e-13 -1.11176e-13 -1.08806e-13 -1.04875e-13 -9.94607e-14 -9.5567e-14 -9.16733e-14 -8.72431e-14 -8.41589e-14 -8.32984e-14 -8.31867e-14 -8.3075e-14 -8.39272e-14 -8.62525e-14 -8.81202e-14 -8.75136e-14 -8.6907e-14 -8.74478e-14 -8.62153e-14 -8.28235e-14 -7.84505e-14 -7.40774e-14 -6.92357e-14 -6.33199e-14 -5.63712e-14 -4.92895e-14 -4.22077e-14 -3.43703e-14 -2.60367e-14 -2.04569e-14 -1.70055e-14 -1.35542e-14 -9.63269e-15 -7.22679e-15 -6.11448e-15 -5.98233e-15 -5.85019e-15 -6.11427e-15 -7.59558e-15 -6.15398e-15 -4.48346e-15 -2.81294e-15 -1.90521e-15 -1.34646e-15
-1.68428e-13 -1.6842e-13 -1.68412e-13 -1.68404e-13 -1.68396e-13 -1.68387e-13 -1.64082e-13 -1.61614e-13 -1.59146e-13 -1.5671e-13 -1.56061e-13 -1.59256e-13 -1.62748e-13 -1.66241e-13 -1.70381e-13 -1.76135e-13 -1.79509e-13 -1.81452e-13 -1.83395e-13 -1.85539e-13 -1.8677e-13 -1.82408e-13 -1.76885e-13 -1.71362e-13 -1.65516e-13 -1.57936e-13 -1.48846e-13 -1.40098e-13 -1.31351e-13 -1.22674e-13 -1.14535e-13 -1.11446e-13 -1.09311e-13 -1.07176e-13 -1.04937e-13 -1.03574e-13 -1.06149e-13 -1.08831e-13 -1.11512e-13 -1.13971e-13 -1.15809e-13 -1.14953e-13 -1.13084e-13 -1.11215e-13 -1.09074e-13 -1.05143e-13 -9.97291e-14 -9.58354e-14 -9.19417e-14 -8.77577e-14 -8.46736e-14 -8.3813e-14 -8.37013e-14 -8.35896e-14 -8.39995e-14 -8.63247e-14 -8.81924e-14 -8.75858e-14 -8.69793e-14 -8.69935e-14 -8.5761e-14 -8.23692e-14 -7.79962e-14 -7.36232e-14 -6.89965e-14 -6.30807e-14 -5.6132e-14 -4.90502e-14 -4.19685e-14 -3.44778e-14 -2.61442e-14 -2.05644e-14 -1.71131e-14 -1.36617e-14 -9.95597e-15 -7.55007e-15 -6.43775e-15 -6.30561e-15 -6.17346e-15 -6.25571e-15 -7.73703e-15 -6.29542e-15 -4.6249e-15 -2.95438e-15 -1.6966e-15 -1.13785e-15
-1.68722e-13 -1.68714e-13 -1.68706e-13 -1.68698e-13 -1.6869e-13 -1.68682e-13 -1.64377e-13 -1.61908e-13 -1.5944e-13 -1.56976e-13 -1.56328e-13 -1.59522e-13 -1.63015e-13 -1.66508e-13 -1.70099e-13 -1.75852e-13 -1.79227e-13 -1.8117e-13 -1.83113e-13 -1.85086e-13 -1.86318e-13 -1.81955e-13 -1.76432e-13 -1.7091e-13 -1.65338e-13 -1.57757e-13 -1.48667e-13 -1.3992e-13 -1.31172e-13 -1.22435e-13 -1.14297e-13 -1.11208e-13 -1.09073e-13 -1.06937e-13 -1.04786e-13 -1.03424e-13 -1.05999e-13 -1.0868e-13 -1.11362e-13 -1.1401e-13 -1.15847e-13 -1.14992e-13 -1.13123e-13 -1.11253e-13 -1.09343e-13 -1.05412e-13 -9.99975e-14 -9.61038e-14 -9.22101e-14 -8.82723e-14 -8.51882e-14 -8.43276e-14 -8.42159e-14 -8.41042e-14 -8.40718e-14 -8.6397e-14 -8.82647e-14 -8.76581e-14 -8.70515e-14 -8.65393e-14 -8.53067e-14 -8.1915e-14 -7.75419e-14 -7.31689e-14 -6.87573e-14 -6.28415e-14 -5.58928e-14 -4.8811e-14 -4.17293e-14 -3.45854e-14 -2.62518e-14 -2.0672e-14 -1.72206e-14 -1.37692e-14 -1.02792e-14 -7.87334e-15 -6.76102e-15 -6.62888e-15 -6.49673e-15 -6.39716e-15 -7.87847e-15 -6.43687e-15 -4.76635e-15 -3.09582e-15 -1.48799e-15 -9.29247e-16
-1.69016e-13 -1.69008e-13 -1.69e-13 -1.68992e-13 -1.68984e-13 -1.68976e-13 -1.64671e-13 -1.62202e-13 -1.59734e-13 -1.57266e-13 -1.56594e-13 -1.59789e-13 -1.63282e-13 -1.66775e-13 -1.70267e-13 -1.7557e-13 -1.78944e-13 -1.80887e-13 -1.82831e-13 -1.84774e-13 -1.85865e-13 -1.81503e-13 -1.7598e-13 -1.70457e-13 -1.64934e-13 -1.57578e-13 -1.48489e-13 -1.39741e-13 -1.30994e-13 -1.22246e-13 -1.14058e-13 -1.10969e-13 -1.08834e-13 -1.06699e-13 -1.04564e-13 -1.03274e-13 -1.05849e-13 -1.0853e-13 -1.11212e-13 -1.13893e-13 -1.15886e-13 -1.15031e-13 -1.13161e-13 -1.11292e-13 -1.09422e-13 -1.0568e-13 -1.00266e-13 -9.63723e-14 -9.24786e-14 -8.85849e-14 -8.57028e-14 -8.48423e-14 -8.47306e-14 -8.46189e-14 -8.45072e-14 -8.64692e-14 -8.83369e-14 -8.77304e-14 -8.71238e-14 -8.65172e-14 -8.48524e-14 -8.14607e-14 -7.70876e-14 -7.27146e-14 -6.83416e-14 -6.26022e-14 -5.56536e-14 -4.85718e-14 -4.149e-14 -3.44083e-14 -2.63593e-14 -2.07795e-14 -1.73281e-14 -1.38768e-14 -1.04254e-14 -8.19661e-15 -7.0843e-15 -6.95215e-15 -6.82001e-15 -6.68786e-15 -8.01991e-15 -6.57831e-15 -4.90779e-15 -3.23727e-15 -1.56674e-15 -7.20642e-16
-1.69311e-13 -1.69303e-13 -1.69294e-13 -1.69286e-13 -1.69278e-13 -1.6927e-13 -1.64965e-13 -1.62497e-13 -1.60028e-13 -1.5756e-13 -1.56861e-13 -1.60055e-13 -1.63548e-13 -1.67041e-13 -1.70534e-13 -1.75288e-13 -1.78662e-13 -1.80605e-13 -1.82548e-13 -1.84491e-13 -1.85413e-13 -1.8105e-13 -1.75527e-13 -1.70005e-13 -1.64482e-13 -1.574e-13 -1.4831e-13 -1.39563e-13 -1.30815e-13 -1.22067e-13 -1.1382e-13 -1.10731e-13 -1.08596e-13 -1.0646e-13 -1.04325e-13 -1.03123e-13 -1.05698e-13 -1.0838e-13 -1.11061e-13 -1.13743e-13 -1.15924e-13 -1.15069e-13 -1.132e-13 -1.1133e-13 -1.09461e-13 -1.05948e-13 -1.00534e-13 -9.66407e-14 -9.2747e-14 -8.88533e-14 -8.62174e-14 -8.53569e-14 -8.52452e-14 -8.51335e-14 -8.50218e-14 -8.65415e-14 -8.84092e-14 -8.78026e-14 -8.71961e-14 -8.65895e-14 -8.43981e-14 -8.10064e-14 -7.66334e-14 -7.22603e-14 -6.78873e-14 -6.2363e-14 -5.54144e-14 -4.83326e-14 -4.12508e-14 -3.41691e-14 -2.64668e-14 -2.0887e-14 -1.74357e-14 -1.39843e-14 -1.05329e-14 -8.51989e-15 -7.40757e-15 -7.27543e-15 -7.14328e-15 -7.01114e-15 -8.16136e-15 -6.71975e-15 -5.04923e-15 -3.37871e-15 -1.70819e-15 -5.12036e-16