# vtk DataFile Version 2.0
track0
ASCII
DATASET POLYDATA
POINTS 1720 float
-1.001 -0.05 0.0011
-1.0008 -0.05 0.0011
-1.0006 -0.05 0.0011
-1.0004 -0.05 0.0011
-1.0002 -0.05 0.0011
-1 -0.05 0.0011
-0.8 -0.05 0.0011
-0.6 -0.05 0.0011
-0.4 -0.05 0.0011
-0.2 -0.05 0.0011
0 -0.05 0.0011
0.2 -0.05 0.0011
0.4 -0.05 0.0011
0.6 -0.05 0.0011
0.8 -0.05 0.0011
1 -0.05 0.0011
1.2 -0.05 0.0011
1.4 -0.05 0.0011
1.6 -0.05 0.0011
1.8 -0.05 0.0011
2 -0.05 0.0011
2.2 -0.05 0.0011
2.4 -0.05 0.0011
2.6 -0.05 0.0011
2.8 -0.05 0.0011
3 -0.05 0.0011
3.2 -0.05 0.0011
3.4 -0.05 0.0011
3.6 -0.05 0.0011
3.8 -0.05 0.0011
4 -0.05 0.0011
4.2 -0.05 0.0011
4.4 -0.05 0.0011
4.6 -0.05 0.0011
4.8 -0.05 0.0011
5 -0.05 0.0011
5.2 -0.05 0.0011
5.4 -0.05 0.0011
5.6 -0.05 0.0011
5.8 -0.05 0.0011
6 -0.05 0.0011
6.2 -0.05 0.0011
6.4 -0.05 0.0011
6.6 -0.05 0.0011
6.8 -0.05 0.0011
7 -0.05 0.0011
7.2 -0.05 0.0011
7.4 -0.05 0.0011
7.6 -0.05 0.0011
7.8 -0.05 0.0011
8 -0.05 0.0011
8.2 -0.05 0.0011
8.4 -0.05 0.0011
8.6 -0.05 0.0011
8.8 -0.05 0.0011
9 -0.05 0.0011
9.2 -0.05 0.0011
9.4 -0.05 0.0011
9.6 -0.05 0.0011
9.8 -0.05 0.0011
10 -0.05 0.0011
10.2 -0.05 0.0011
10.4 -0.05 0.0011
10.6 -0.05 0.0011
10.8 -0.05 0.0011
11 -0.05 0.0011
11.2 -0.05 0.0011
11.4 -0.05 0.0011
11.6 -0.05 0.0011
11.8 -0.05 0.0011
12 -0.05 0.0011
12.2 -0.05 0.0011
12.4 -0.05 0.0011
12.6 -0.05 0.0011
12.8 -0.05 0.0011
13 -0.05 0.0011
13.2 -0.05 0.0011
13.4 -0.05 0.0011
13.6 -0.05 0.0011
13.8 -0.05 0.0011
14 -0.05 0.0011
14.2 -0.05 0.0011
14.4 -0.05 0.0011
14.6 -0.05 0.0011
14.8 -0.05 0.0011
15 -0.05 0.0011
-1.001 -0.05 0.0537316
-1.0008 -0.05 0.0537316
-1.0006 -0.05 0.0537316
-1.0004 -0.05 0.0537316
-1.0002 -0.05 0.0537316
-1 -0.05 0.0537316
-0.8 -0.05 0.0537316
-0.6 -0.05 0.0537316
-0.4 -0.05 0.0537316
-0.2 -0.05 0.0537316
0 -0.05 0.0537316
0.2 -0.05 0.0537316
0.4 -0.05 0.0537316
0.6 -0.05 0.0537316
0.8 -0.05 0.0537316
1 -0.05 0.0537316
1.2 -0.05 0.0537316
1.4 -0.05 0.0537316
1.6 -0.05 0.0537316
1.8 -0.05 0.0537316
2 -0.05 0.0537316
2.2 -0.05 0.0537316
2.4 -0.05 0.0537316
2.6 -0.05 0.0537316
2.8 -0.05 0.0537316
3 -0.05 0.0537316
3.2 -0.05 0.0537316
3.4 -0.05 0.0537316
3.6 -0.05 0.0537316
3.8 -0.05 0.0537316
4 -0.05 0.0537316
4.2 -0.05 0.0537316
4.4 -0.05 0.0537316
4.6 -0.05 0.0537316
4.8 -0.05 0.0537316
5 -0.05 0.0537316
5.2 -0.05 0.0537316
5.4 -0.05 0.0537316
5.6 -0.05 0.0537316
5.8 -0.05 0.0537316
6 -0.05 0.0537316
6.2 -0.05 0.0537316
6.4 -0.05 0.0537316
6.6 -0.05 0.0537316
6.8 -0.05 0.0537316
7 -0.05 0.0537316
7.2 -0.05 0.0537316
7.4 -0.05 0.0537316
7.6 -0.05 0.0537316
7.8 -0.05 0.0537316
8 -0.05 0.0537316
8.2 -0.05 0.0537316
8.4 -0.05 0.0537316
8.6 -0.05 0.0537316
8.8 -0.05 0.0537316
9 -0.05 0.0537316
9.2 -0.05 0.0537316
9.4 -0.05 0.0537316
9.6 -0.05 0.0537316
9.8 -0.05 0.0537316
10 -0.05 0.0537316
10.2 -0.05 0.0537316
10.4 -0.05 0.0537316
10.6 -0.05 0.0537316
10.8 -0.05 0.0537316
11 -0.05 0.0537316
11.2 -0.05 0.0537316
11.4 -0.05 0.0537316
11.6 -0.05 0.0537316
11.8 -0.05 0.0537316
12 -0.05 0.0537316
12.2 -0.05 0.0537316
12.4 -0.05 0.0537316
12.6 -0.05 0.0537316
12.8 -0.05 0.0537316
13 -0.05 0.0537316
13.2 -0.05 0.0537316
13.4 -0.05 0.0537316
13.6 -0.05 0.0537316
13.8 -0.05 0.0537316
14 -0.05 0.0537316
14.2 -0.05 0.0537316
14.4 -0.05 0.0537316
14.6 -0.05 0.0537316
14.8 -0.05 0.0537316
15 -0.05 0.0537316
-1.001 -0.05 0.106363
-1.0008 -0.05 0.106363
-1.0006 -0.05 0.106363
-1.0004 -0.05 0.106363
-1.0002 -0.05 0.106363
-1 -0.05 0.106363
-0.8 -0.05 0.106363
-0.6 -0.05 0.106363
-0.4 -0.05 0.106363
-0.2 -0.05 0.106363
0 -0.05 0.106363
0.2 -0.05 0.106363
0.4 -0.05 0.106363
0.6 -0.05 0.106363
0.8 -0.05 0.106363
1 -0.05 0.106363
1.2 -0.05 0.106363
1.4 -0.05 0.106363
1.6 -0.05 0.106363
1.8 -0.05 0.106363
2 -0.05 0.106363
2.2 -0.05 0.106363
2.4 -0.05 0.106363
2.6 -0.05 0.106363
2.8 -0.05 0.106363
3 -0.05 0.106363
3.2 -0.05 0.106363
3.4 -0.05 0.106363
3.6 -0.05 0.106363
3.8 -0.05 0.106363
4 -0.05 0.106363
4.2 -0.05 0.106363
4.4 -0.05 0.106363
4.6 -0.05 0.106363
4.8 -0.05 0.106363
5 -0.05 0.106363
5.2 -0.05 0.106363
5.4 -0.05 0.106363
5.6 -0.05 0.106363
5.8 -0.05 0.106363
6 -0.05 0.106363
6.2 -0.05 0.106363
6.4 -0.05 0.106363
6.6 -0.05 0.106363
6.8 -0.05 0.106363
7 -0.05 0.106363
7.2 -0.05 0.106363
7.4 -0.05 0.106363
7.6 -0.05 0.106363
7.8 -0.05 0.106363
8 -0.05 0.106363
8.2 -0.05 0.106363
8.4 -0.05 0.106363
8.6 -0.05 0.106363
8.8 -0.05 0.106363
9 -0.05 0.106363
9.2 -0.05 0.106363
9.4 -0.05 0.106363
9.6 -0.05 0.106363
9.8 -0.05 0.106363
10 -0.05 0.106363
10.2 -0.05 0.106363
10.4 -0.05 0.106363
10.6 -0.05 0.106363
10.8 -0.05 0.106363
11 -0.05 0.106363
11.2 -0.05 0.106363
11.4 -0.05 0.106363
11.6 -0.05 0.106363
11.8 -0.05 0.106363
12 -0.05 0.106363
12.2 -0.05 0.106363
12.4 -0.05 0.106363
12.6 -0.05 0.106363
12.8 -0.05 0.106363
13 -0.05 0.106363
13.2 -0.05 0.106363
13.4 -0.05 0.106363
13.6 -0.05 0.106363
13.8 -0.05 0.106363
14 -0.05 0.106363
14.2 -0.05 0.106363
14.4 -0.05 0.106363
14.6 -0.05 0.106363
14.8 -0.05 0.106363
15 -0.05 0.106363
-1.001 -0.05 0.158995
-1.0008 -0.05 0.158995
-1.0006 -0.05 0.158995
-1.0004 -0.05 0.158995
-1.0002 -0.05 0.158995
-1 -0.05 0.158995
-0.8 -0.05 0.158995
-0.6 -0.05 0.158995
-0.4 -0.05 0.158995
-0.2 -0.05 0.158995
0 -0.05 0.158995
0.2 -0.05 0.158995
0.4 -0.05 0.158995
0.6 -0.05 0.158995
0.8 -0.05 0.158995
1 -0.05 0.158995
1.2 -0.05 0.158995
1.4 -0.05 0.158995
1.6 -0.05 0.158995
1.8 -0.05 0.158995
2 -0.05 0.158995
2.2 -0.05 0.158995
2.4 -0.05 0.158995
2.6 -0.05 0.158995
2.8 -0.05 0.158995
3 -0.05 0.158995
3.2 -0.05 0.158995
3.4 -0.05 0.158995
3.6 -0.05 0.158995
3.8 -0.05 0.158995
4 -0.05 0.158995
4.2 -0.05 0.158995
4.4 -0.05 0.158995
4.6 -0.05 0.158995
4.8 -0.05 0.158995
5 -0.05 0.158995
5.2 -0.05 0.158995
5.4 -0.05 0.158995
5.6 -0.05 0.158995
5.8 -0.05 0.158995
6 -0.05 0.158995
6.2 -0.05 0.158995
6.4 -0.05 0.158995
6.6 -0.05 0.158995
6.8 -0.05 0.158995
7 -0.05 0.158995
7.2 -0.05 0.158995
7.4 -0.05 0.158995
7.6 -0.05 0.158995
7.8 -0.05 0.158995
8 -0.05 0.158995
8.2 -0.05 0.158995
8.4 -0.05 0.158995
8.6 -0.05 0.158995
8.8 -0.05 0.158995
9 -0.05 0.158995
9.2 -0.05 0.158995
9.4 -0.05 0.158995
9.6 -0.05 0.158995
9.8 -0.05 0.158995
10 -0.05 0.158995
10.2 -0.05 0.158995
10.4 -0.05 0.158995
10.6 -0.05 0.158995
10.8 -0.05 0.158995
11 -0.05 0.158995
11.2 -0.05 0.158995
11.4 -0.05 0.158995
11.6 -0.05 0.158995
11.8 -0.05 0.158995
12 -0.05 0.158995
12.2 -0.05 0.158995
12.4 -0.05 0.158995
12.6 -0.05 0.158995
12.8 -0.05 0.158995
13 -0.05 0.158995
13.2 -0.05 0.158995
13.4 -0.05 0.158995
13.6 -0.05 0.158995
13.8 -0.05 0.158995
14 -0.05 0.158995
14.2 -0.05 0.158995
14.4 -0.05 0.158995
14.6 -0.05 0.158995
14.8 -0.05 0.158995
15 -0.05 0.158995
-1.001 -0.05 0.211626
-1.0008 -0.05 0.211626
-1.0006 -0.05 0.211626
-1.0004 -0.05 0.211626
-1.0002 -0.05 0.211626
-1 -0.05 0.211626
-0.8 -0.05 0.211626
-0.6 -0.05 0.211626
-0.4 -0.05 0.211626
-0.2 -0.05 0.211626
0 -0.05 0.211626
0.2 -0.05 0.211626
0.4 -0.05 0.211626
0.6 -0.05 0.211626
0.8 -0.05 0.211626
1 -0.05 0.211626
1.2 -0.05 0.211626
1.4 -0.05 0.211626
1.6 -0.05 0.211626
1.8 -0.05 0.211626
2 -0.05 0.211626
2.2 -0.05 0.211626
2.4 -0.05 0.211626
2.6 -0.05 0.211626
2.8 -0.05 0.211626
3 -0.05 0.211626
3.2 -0.05 0.211626
3.4 -0.05 0.211626
3.6 -0.05 0.211626
3.8 -0.05 0.211626
4 -0.05 0.211626
4.2 -0.05 0.211626
4.4 -0.05 0.211626
4.6 -0.05 0.211626
4.8 -0.05 0.211626
5 -0.05 0.211626
5.2 -0.05 0.211626
5.4 -0.05 0.211626
5.6 -0.05 0.211626
5.8 -0.05 0.211626
6 -0.05 0.211626
6.2 -0.05 0.211626
6.4 -0.05 0.211626
6.6 -0.05 0.211626
6.8 -0.05 0.211626
7 -0.05 0.211626
7.2 -0.05 0.211626
7.4 -0.05 0.211626
7.6 -0.05 0.211626
7.8 -0.05 0.211626
8 -0.05 0.211626
8.2 -0.05 0.211626
8.4 -0.05 0.211626
8.6 -0.05 0.211626
8.8 -0.05 0.211626
9 -0.05 0.211626
9.2 -0.05 0.211626
9.4 -0.05 0.211626
9.6 -0.05 0.211626
9.8 -0.05 0.211626
10 -0.05 0.211626
10.2 -0.05 0.211626
10.4 -0.05 0.211626
10.6 -0.05 0.211626
10.8 -0.05 0.211626
11 -0.05 0.211626
11.2 -0.05 0.211626
11.4 -0.05 0.211626
11.6 -0.05 0.211626
11.8 -0.05 0.211626
12 -0.05 0.211626
12.2 -0.05 0.211626
12.4 -0.05 0.211626
12.6 -0.05 0.211626
12.8 -0.05 0.211626
13 -0.05 0.211626
13.2 -0.05 0.211626
13.4 -0.05 0.211626
13.6 -0.05 0.211626
13.8 -0.05 0.211626
14 -0.05 0.211626
14.2 -0.05 0.211626
14.4 -0.05 0.211626
14.6 -0.05 0.211626
14.8 -0.05 0.211626
15 -0.05 0.211626
-1.001 -0.05 0.264258
-1.0008 -0.05 0.264258
-1.0006 -0.05 0.264258
-1.0004 -0.05 0.264258
-1.0002 -0.05 0.264258
-1 -0.05 0.264258
-0.8 -0.05 0.264258
-0.6 -0.05 0.264258
-0.4 -0.05 0.264258
-0.2 -0.05 0.264258
0 -0.05 0.264258
0.2 -0.05 0.264258
0.4 -0.05 0.264258
0.6 -0.05 0.264258
0.8 -0.05 0.264258
1 -0.05 0.264258
1.2 -0.05 0.264258
1.4 -0.05 0.264258
1.6 -0.05 0.264258
1.8 -0.05 0.264258
2 -0.05 0.264258
2.2 -0.05 0.264258
2.4 -0.05 0.264258
2.6 -0.05 0.264258
2.8 -0.05 0.264258
3 -0.05 0.264258
3.2 -0.05 0.264258
3.4 -0.05 0.264258
3.6 -0.05 0.264258
3.8 -0.05 0.264258
4 -0.05 0.264258
4.2 -0.05 0.264258
4.4 -0.05 0.264258
4.6 -0.05 0.264258
4.8 -0.05 0.264258
5 -0.05 0.264258
5.2 -0.05 0.264258
5.4 -0.05 0.264258
5.6 -0.05 0.264258
5.8 -0.05 0.264258
6 -0.05 0.264258
6.2 -0.05 0.264258
6.4 -0.05 0.264258
6.6 -0.05 0.264258
6.8 -0.05 0.264258
7 -0.05 0.264258
7.2 -0.05 0.264258
7.4 -0.05 0.264258
7.6 -0.05 0.264258
7.8 -0.05 0.264258
8 -0.05 0.264258
8.2 -0.05 0.264258
8.4 -0.05 0.264258
8.6 -0.05 0.264258
8.8 -0.05 0.264258
9 -0.05 0.264258
9.2 -0.05 0.264258
9.4 -0.05 0.264258
9.6 -0.05 0.264258
9.8 -0.05 0.264258
10 -0.05 0.264258
10.2 -0.05 0.264258
10.4 -0.05 0.264258
10.6 -0.05 0.264258
10.8 -0.05 0.264258
11 -0.05 0.264258
11.2 -0.05 0.264258
11.4 -0.05 0.264258
11.6 -0.05 0.264258
11.8 -0.05 0.264258
12 -0.05 0.264258
12.2 -0.05 0.264258
12.4 -0.05 0.264258
12.6 -0.05 0.264258
12.8 -0.05 0.264258
13 -0.05 0.264258
13.2 -0.05 0.264258
13.4 -0.05 0.264258
13.6 -0.05 0.264258
13.8 -0.05 0.264258
14 -0.05 0.264258
14.2 -0.05 0.264258
14.4 -0.05 0.264258
14.6 -0.05 0.264258
14.8 -0.05 0.264258
15 -0.05 0.264258
-1.001 -0.05 0.316889
-1.0008 -0.05 0.316889
-1.0006 -0.05 0.316889
-1.0004 -0.05 0.316889
[...]
POINT_DATA 1720
 FIELD attributes 1
U 3 1720 float
20 	1.16406e-18 	-4.92777e-19 20 	9.84168e-19 	-2.33715e-19 20 	8.0428e-19 	2.53468e-20 20 	6.24391e-19 	2.84409e-19 20 	4.44503e-19 	5.4347e-19 20 	2.64614e-19 	8.02532e-19 20 	-3.39569e-19 	1.62457e-18 20 	-3.39569e-19 	1.62457e-18 20 	-3.39569e-19 	1.62457e-18 20 	-3.39569e-19 	1.62457e-18 20 	-9.10093e-19 	1.18101e-18 20 	-1.17066e-18 	1.75643e-18 20 	-1.17066e-18 	1.75643e-18 20 	-1.17066e-18 	1.75643e-18 20 	-1.17066e-18 	1.75643e-18 20 	-8.89437e-19 	8.93175e-19 20 	-5.08545e-19 	6.54073e-19 20 	-5.08545e-19 	6.54073e-19 20 	-5.08545e-19 	6.54073e-19 20 	-5.08545e-19 	6.54073e-19 20 	-1.89209e-20 	4.74896e-19 20 	2.35358e-18 	1.30257e-18 20 	2.35358e-18 	1.30257e-18 20 	2.35358e-18 	1.30257e-18 20 	2.35358e-18 	1.30257e-18 20 	-3.36366e-20 	4.15238e-19 20 	3.04984e-19 	1.49549e-18 20 	3.04984e-19 	1.49549e-18 20 	3.04984e-19 	1.49549e-18 20 	3.04984e-19 	1.49549e-18 20 	-7.85284e-19 	-1.55272e-19 20 	-9.33251e-19 	-5.77903e-19 20 	-9.33251e-19 	-5.77903e-19 20 	-9.33251e-19 	-5.77903e-19 20 	-9.33251e-19 	-5.77903e-19 20 	-9.42321e-19 	-8.98656e-19 20 	-2.05687e-18 	-2.49637e-18 20 	-2.05687e-18 	-2.49637e-18 20 	-2.05687e-18 	-2.49637e-18 20 	-2.05687e-18 	-2.49637e-18 20 	-7.31277e-19 	-9.15028e-19 20 	-6.6565e-19 	-1.02187e-18 20 	-6.6565e-19 	-1.02187e-18 20 	-6.6565e-19 	-1.02187e-18 20 	-6.6565e-19 	-1.02187e-18 20 	-7.11822e-19 	-3.50075e-19 20 	-2.01126e-18 	-6.24073e-19 20 	-2.01126e-18 	-6.24073e-19 20 	-2.01126e-18 	-6.24073e-19 20 	-2.01126e-18 	-6.24073e-19 20 	-1.08244e-18 	2.5398e-19 20 	-2.62146e-18 	1.29921e-18 20 	-2.62146e-18 	1.29921e-18 20 	-2.62146e-18 	1.29921e-18 20 	-2.62146e-18 	1.29921e-18 20 	-1.35287e-18 	2.51434e-19 20 	-2.1997e-18 	1.12026e-19 20 	-2.1997e-18 	1.12026e-19 20 	-2.1997e-18 	1.12026e-19 20 	-2.1997e-18 	1.12026e-19 20 	-1.4493e-18 	-3.11745e-19 20 	-2.00612e-18 	-1.02016e-18 20 	-2.00612e-18 	-1.02016e-18 20 	-2.00612e-18 	-1.02016e-18 20 	-2.00612e-18 	-1.02016e-18 20 	-1.65337e-18 	-8.3538e-19 20 	-3.8927e-18 	-1.78772e-18 20 	-3.8927e-18 	-1.78772e-18 20 	-3.8927e-18 	-1.78772e-18 20 	-3.8927e-18 	-1.78772e-18 20 	-1.69627e-18 	-1.14333e-18 20 	-2.61757e-18 	-1.82259e-18 20 	-2.61757e-18 	-1.82259e-18 20 	-2.61757e-18 	-1.82259e-18 20 	-2.61757e-18 	-1.82259e-18 20 	-1.92911e-18 	-7.62121e-19 20 	-2.93328e-18 	-3.92618e-21 20 	-2.93328e-18 	-3.92618e-21 20 	-2.93328e-18 	-3.92618e-21 20 	-2.93328e-18 	-3.92618e-21 20 	-2.0754e-18 	-4.65504e-19 20 	-1.8105e-16 	-8.31718e-17 20 	-3.59904e-16 	-1.65562e-16 20 	-5.38757e-16 	-2.47953e-16 20 	-7.17611e-16 	-3.30343e-16 20 	-8.81919e-16 	-4.12152e-16
20 	1.3825e-17 	3.79059e-17 20 	1.36451e-17 	3.81649e-17 20 	1.34653e-17 	3.8424e-17 20 	1.32854e-17 	3.86831e-17 20 	1.31055e-17 	3.89421e-17 20 	1.29256e-17 	3.92012e-17 20 	-1.85223e-17 	7.78506e-17 20 	-1.85223e-17 	7.78506e-17 20 	-1.85223e-17 	7.78506e-17 20 	-1.85223e-17 	7.78506e-17 20 	-4.44552e-17 	5.76886e-17 20 	-5.62292e-17 	8.28677e-17 20 	-5.62292e-17 	8.28677e-17 20 	-5.62292e-17 	8.28677e-17 20 	-5.62292e-17 	8.28677e-17 20 	-4.34462e-17 	4.36288e-17 20 	-2.31799e-17 	3.13416e-17 20 	-2.31799e-17 	3.13416e-17 20 	-2.31799e-17 	3.13416e-17 20 	-2.31799e-17 	3.13416e-17 20 	-9.24227e-19 	2.31972e-17 20 	1.06867e-16 	6.06162e-17 20 	1.06867e-16 	6.06162e-17 20 	1.06867e-16 	6.06162e-17 20 	1.06867e-16 	6.06162e-17 20 	-1.64304e-18 	2.02831e-17 20 	1.11989e-17 	6.74499e-17 20 	1.11989e-17 	6.74499e-17 20 	1.11989e-17 	6.74499e-17 20 	1.11989e-17 	6.74499e-17 20 	-3.83587e-17 	-7.58456e-18 20 	-4.56172e-17 	-2.93169e-17 20 	-4.56172e-17 	-2.93169e-17 20 	-4.56172e-17 	-2.93169e-17 20 	-4.56172e-17 	-2.93169e-17 20 	-4.60294e-17 	-4.38966e-17 20 	-9.5975e-17 	-1.16575e-16 20 	-9.5975e-17 	-1.16575e-16 20 	-9.5975e-17 	-1.16575e-16 20 	-9.5975e-17 	-1.16575e-16 20 	-3.57206e-17 	-4.46963e-17 20 	-3.26716e-17 	-4.7636e-17 20 	-3.26716e-17 	-4.7636e-17 20 	-3.26716e-17 	-4.7636e-17 20 	-3.26716e-17 	-4.7636e-17 20 	-3.47703e-17 	-1.71001e-17 20 	-9.50929e-17 	-2.75054e-17 20 	-9.50929e-17 	-2.75054e-17 20 	-9.50929e-17 	-2.75054e-17 20 	-9.50929e-17 	-2.75054e-17 20 	-5.28739e-17 	1.24061e-17 20 	-1.23747e-16 	5.9908e-17 20 	-1.23747e-16 	5.9908e-17 20 	-1.23747e-16 	5.9908e-17 20 	-1.23747e-16 	5.9908e-17 20 	-6.60837e-17 	1.22818e-17 20 	-1.04903e-16 	4.03455e-18 20 	-1.04903e-16 	4.03455e-18 20 	-1.04903e-16 	4.03455e-18 20 	-1.04903e-16 	4.03455e-18 20 	-7.07937e-17 	-1.52278e-17 20 	-9.6796e-17 	-4.92047e-17 20 	-9.6796e-17 	-4.92047e-17 20 	-9.6796e-17 	-4.92047e-17 20 	-9.6796e-17 	-4.92047e-17 20 	-8.07619e-17 	-4.08057e-17 20 	-1.82695e-16 	-8.51385e-17 20 	-1.82695e-16 	-8.51385e-17 20 	-1.82695e-16 	-8.51385e-17 20 	-1.82695e-16 	-8.51385e-17 20 	-8.28576e-17 	-5.58482e-17 20 	-1.25525e-16 	-8.54304e-17 20 	-1.25525e-16 	-8.54304e-17 20 	-1.25525e-16 	-8.54304e-17 20 	-1.25525e-16 	-8.54304e-17 20 	-9.42312e-17 	-3.72273e-17 20 	-1.40371e-16 	-1.75761e-18 20 	-1.40371e-16 	-1.75761e-18 20 	-1.40371e-16 	-1.75761e-18 20 	-1.40371e-16 	-1.75761e-18 20 	-1.01377e-16 	-2.27384e-17 20 	-2.81812e-16 	-1.18539e-16 20 	-4.60665e-16 	-2.0093e-16 20 	-6.39519e-16 	-2.8332e-16 20 	-8.18372e-16 	-3.65711e-16 20 	-9.25711e-16 	-4.21115e-16
20 	2.6486e-17 	7.63045e-17 20 	2.63061e-17 	7.65636e-17 20 	2.61262e-17 	7.68227e-17 20 	2.59463e-17 	7.70817e-17 20 	2.57665e-17 	7.73408e-17 20 	2.55866e-17 	7.75999e-17 20 	-6.20674e-17 	1.34358e-16 20 	-6.20674e-17 	1.34358e-16 20 	-6.20674e-17 	1.34358e-16 20 	-6.20674e-17 	1.34358e-16 20 	-8.80003e-17 	1.14196e-16 20 	-9.8786e-17 	1.25603e-16 20 	-9.8786e-17 	1.25603e-16 20 	-9.8786e-17 	1.25603e-16 20 	-9.8786e-17 	1.25603e-16 20 	-8.6003e-17 	8.63644e-17 20 	-2.40852e-17 	5.40639e-17 20 	-2.40852e-17 	5.40639e-17 20 	-2.40852e-17 	5.40639e-17 20 	-2.40852e-17 	5.40639e-17 20 	-1.82953e-18 	4.59194e-17 20 	1.05257e-16 	8.0484e-17 20 	1.05257e-16 	8.0484e-17 20 	1.05257e-16 	8.0484e-17 20 	1.05257e-16 	8.0484e-17 20 	-3.25245e-18 	4.01509e-17 20 	-2.63745e-17 	6.00206e-17 20 	-2.63745e-17 	6.00206e-17 20 	-2.63745e-17 	6.00206e-17 20 	-2.63745e-17 	6.00206e-17 20 	-7.59321e-17 	-1.50138e-17 20 	-9.07043e-17 	-7.23148e-17 20 	-9.07043e-17 	-7.23148e-17 20 	-9.07043e-17 	-7.23148e-17 20 	-9.07043e-17 	-7.23148e-17 20 	-9.11166e-17 	-8.68944e-17 20 	-1.30964e-16 	-1.60357e-16 20 	-1.30964e-16 	-1.60357e-16 20 	-1.30964e-16 	-1.60357e-16 20 	-1.30964e-16 	-1.60357e-16 20 	-7.07099e-17 	-8.84775e-17 20 	-6.673e-17 	-6.4386e-17 20 	-6.673e-17 	-6.4386e-17 20 	-6.673e-17 	-6.4386e-17 20 	-6.673e-17 	-6.4386e-17 20 	-6.88287e-17 	-3.38501e-17 20 	-1.46884e-16 	-1.53532e-17 20 	-1.46884e-16 	-1.53532e-17 20 	-1.46884e-16 	-1.53532e-17 20 	-1.46884e-16 	-1.53532e-17 20 	-1.04665e-16 	2.45583e-17 20 	-1.88478e-16 	7.19384e-17 20 	-1.88478e-16 	7.19384e-17 20 	-1.88478e-16 	7.19384e-17 20 	-1.88478e-16 	7.19384e-17 20 	-1.30815e-16 	2.43121e-17 20 	-1.74247e-16 	-1.08815e-17 20 	-1.74247e-16 	-1.08815e-17 20 	-1.74247e-16 	-1.08815e-17 20 	-1.74247e-16 	-1.08815e-17 20 	-1.40138e-16 	-3.01438e-17 20 	-1.75905e-16 	-8.9175e-17 20 	-1.75905e-16 	-8.9175e-17 20 	-1.75905e-16 	-8.9175e-17 20 	-1.75905e-16 	-8.9175e-17 20 	-1.5987e-16 	-8.07761e-17 20 	-2.63857e-16 	-1.39843e-16 20 	-2.63857e-16 	-1.39843e-16 20 	-2.63857e-16 	-1.39843e-16 20 	-2.63857e-16 	-1.39843e-16 20 	-1.64019e-16 	-1.10553e-16 20 	-2.17827e-16 	-1.21896e-16 20 	-2.17827e-16 	-1.21896e-16 20 	-2.17827e-16 	-1.21896e-16 20 	-2.17827e-16 	-1.21896e-16 20 	-1.86533e-16 	-7.36924e-17 20 	-2.39673e-16 	-2.40305e-17 20 	-2.39673e-16 	-2.40305e-17 20 	-2.39673e-16 	-2.40305e-17 20 	-2.39673e-16 	-2.40305e-17 20 	-2.00678e-16 	-4.50114e-17 20 	-3.25604e-16 	-1.27503e-16 20 	-5.04457e-16 	-2.09893e-16 20 	-6.83311e-16 	-2.92283e-16 20 	-8.62164e-16 	-3.74674e-16 20 	-9.69502e-16 	-4.30078e-16
20 	3.9147e-17 	1.14703e-16 20 	3.89671e-17 	1.14962e-16 20 	3.87872e-17 	1.15221e-16 20 	3.86073e-17 	1.1548e-16 20 	3.84274e-17 	1.15739e-16 20 	3.82475e-17 	1.15999e-16 20 	-1.05613e-16 	1.90866e-16 20 	-1.05613e-16 	1.90866e-16 20 	-1.05613e-16 	1.90866e-16 20 	-1.05613e-16 	1.90866e-16 20 	-1.31545e-16 	1.70704e-16 20 	-1.41343e-16 	1.68339e-16 20 	-1.41343e-16 	1.68339e-16 20 	-1.41343e-16 	1.68339e-16 20 	-1.41343e-16 	1.68339e-16 20 	-1.2856e-16 	1.291e-16 20 	-2.49905e-17 	7.67862e-17 20 	-2.49905e-17 	7.67862e-17 20 	-2.49905e-17 	7.67862e-17 20 	-2.49905e-17 	7.67862e-17 20 	-2.73484e-18 	6.86417e-17 20 	1.03648e-16 	1.00352e-16 20 	1.03648e-16 	1.00352e-16 20 	1.03648e-16 	1.00352e-16 20 	1.03648e-16 	1.00352e-16 20 	-4.86185e-18 	6.00187e-17 20 	-6.39479e-17 	5.25913e-17 20 	-6.39479e-17 	5.25913e-17 20 	-6.39479e-17 	5.25913e-17 20 	-6.39479e-17 	5.25913e-17 20 	-1.13505e-16 	-2.24431e-17 20 	-1.35791e-16 	-1.15313e-16 20 	-1.35791e-16 	-1.15313e-16 20 	-1.35791e-16 	-1.15313e-16 20 	-1.35791e-16 	-1.15313e-16 20 	-1.36204e-16 	-1.29892e-16 20 	-1.65954e-16 	-2.04138e-16 20 	-1.65954e-16 	-2.04138e-16 20 	-1.65954e-16 	-2.04138e-16 20 	-1.65954e-16 	-2.04138e-16 20 	-1.05699e-16 	-1.32259e-16 20 	-1.00788e-16 	-8.1136e-17 20 	-1.00788e-16 	-8.1136e-17 20 	-1.00788e-16 	-8.1136e-17 20 	-1.00788e-16 	-8.1136e-17 20 	-1.02887e-16 	-5.06001e-17 20 	-1.98676e-16 	-3.20106e-18 20 	-1.98676e-16 	-3.20106e-18 20 	-1.98676e-16 	-3.20106e-18 20 	-1.98676e-16 	-3.20106e-18 20 	-1.56457e-16 	3.67105e-17 20 	-2.53208e-16 	8.39687e-17 20 	-2.53208e-16 	8.39687e-17 20 	-2.53208e-16 	8.39687e-17 20 	-2.53208e-16 	8.39687e-17 20 	-1.95545e-16 	3.63424e-17 20 	-2.43592e-16 	-2.57975e-17 20 	-2.43592e-16 	-2.57975e-17 20 	-2.43592e-16 	-2.57975e-17 20 	-2.43592e-16 	-2.57975e-17 20 	-2.09483e-16 	-4.50598e-17 20 	-2.55013e-16 	-1.29145e-16 20 	-2.55013e-16 	-1.29145e-16 20 	-2.55013e-16 	-1.29145e-16 20 	-2.55013e-16 	-1.29145e-16 20 	-2.38979e-16 	-1.20746e-16 20 	-3.45018e-16 	-1.94548e-16 20 	-3.45018e-16 	-1.94548e-16 20 	-3.45018e-16 	-1.94548e-16 20 	-3.45018e-16 	-1.94548e-16 20 	-2.4518e-16 	-1.65258e-16 20 	-3.10129e-16 	-1.58361e-16 20 	-3.10129e-16 	-1.58361e-16 20 	-3.10129e-16 	-1.58361e-16 20 	-3.10129e-16 	-1.58361e-16 20 	-2.78835e-16 	-1.10158e-16 20 	-3.38974e-16 	-4.63035e-17 20 	-3.38974e-16 	-4.63035e-17 20 	-3.38974e-16 	-4.63035e-17 20 	-3.38974e-16 	-4.63035e-17 20 	-2.9998e-16 	-6.72843e-17 20 	-3.69396e-16 	-1.36466e-16 20 	-5.48249e-16 	-2.18856e-16 20 	-7.27103e-16 	-3.01247e-16 20 	-9.05956e-16 	-3.83637e-16 20 	-1.01329e-15 	-4.39041e-16
20 	5.1808e-17 	1.53102e-16 20 	5.16281e-17 	1.53361e-16 20 	5.14482e-17 	1.5362e-16 20 	5.12683e-17 	1.53879e-16 20 	5.10884e-17 	1.54138e-16 20 	5.09085e-17 	1.54397e-16 20 	-1.36742e-16 	2.43373e-16 20 	-1.49158e-16 	2.47373e-16 20 	-1.49158e-16 	2.47373e-16 20 	-1.49158e-16 	2.47373e-16 20 	-1.75091e-16 	2.27211e-16 20 	-1.84118e-16 	2.14117e-16 20 	-1.839e-16 	2.11075e-16 20 	-1.839e-16 	2.11075e-16 20 	-1.839e-16 	2.11075e-16 20 	-1.71117e-16 	1.71836e-16 20 	-3.50966e-17 	1.03929e-16 20 	-2.58958e-17 	9.95084e-17 20 	-2.58958e-17 	9.95084e-17 20 	-2.58958e-17 	9.95084e-17 20 	-3.64014e-18 	9.1364e-17 20 	1.02194e-16 	1.2085e-16 20 	1.02039e-16 	1.2022e-16 20 	1.02039e-16 	1.2022e-16 20 	1.02039e-16 	1.2022e-16 20 	-6.47126e-18 	7.98866e-17 20 	-9.35768e-17 	5.1192e-17 20 	-1.01521e-16 	4.5162e-17 20 	-1.01521e-16 	4.5162e-17 20 	-1.01521e-16 	4.5162e-17 20 	-1.51079e-16 	-2.98724e-17 20 	-1.79219e-16 	-1.50453e-16 20 	-1.80879e-16 	-1.58311e-16 20 	-1.80879e-16 	-1.58311e-16 20 	-1.80879e-16 	-1.58311e-16 20 	-1.81291e-16 	-1.7289e-16 20 	-2.03174e-16 	-2.47746e-16 20 	-2.00943e-16 	-2.47919e-16 20 	-2.00943e-16 	-2.47919e-16 20 	-2.00943e-16 	-2.47919e-16 20 	-1.40689e-16 	-1.7604e-16 20 	-1.35053e-16 	-1.03857e-16 20 	-1.34847e-16 	-9.7886e-17 20 	-1.34847e-16 	-9.7886e-17 20 	-1.34847e-16 	-9.7886e-17 20 	-1.36946e-16 	-6.735e-17 20 	-2.4655e-16 	2.56662e-18 20 	-2.50467e-16 	8.9511e-18 20 	-2.50467e-16 	8.9511e-18 20 	-2.50467e-16 	8.9511e-18 20 	-2.08248e-16 	4.88626e-17 20 	-3.15081e-16 	9.60259e-17 20 	-3.17939e-16 	9.5999e-17 20 	-3.17939e-16 	9.5999e-17 20 	-3.17939e-16 	9.5999e-17 20 	-2.60276e-16 	4.83727e-17 20 	-3.11917e-16 	-3.47611e-17 20 	-3.12936e-16 	-4.07135e-17 20 	-3.12936e-16 	-4.07135e-17 20 	-3.12936e-16 	-4.07135e-17 20 	-2.78827e-16 	-5.99759e-17 20 	-3.31965e-16 	-1.63581e-16 20 	-3.34122e-16 	-1.69116e-16 20 	-3.34122e-16 	-1.69116e-16 20 	-3.34122e-16 	-1.69116e-16 20 	-3.18088e-16 	-1.60717e-16 20 	-4.25726e-16 	-2.45998e-16 20 	-4.26179e-16 	-2.49253e-16 20 	-4.26179e-16 	-2.49253e-16 20 	-4.26179e-16 	-2.49253e-16 20 	-3.26342e-16 	-2.19963e-16 20 	-3.9997e-16 	-1.98855e-16 20 	-4.02431e-16 	-1.94826e-16 20 	-4.02431e-16 	-1.94826e-16 20 	-4.02431e-16 	-1.94826e-16 20 	-3.71137e-16 	-1.46623e-16 20 	-4.3673e-16 	-7.17115e-17 20 	-4.38276e-16 	-6.85764e-17 20 	-4.38276e-16 	-6.85764e-17 20 	-4.38276e-16 	-6.85764e-17 20 	-3.99281e-16 	-8.95572e-17 20 	-4.2545e-16 	-1.48369e-16 20 	-5.92041e-16 	-2.27819e-16 20 	-7.70894e-16 	-3.1021e-16 20 	-9.49748e-16 	-3.926e-16 20 	-1.05709e-15 	-4.48005e-16
20 	6.44689e-17 	1.91501e-16 20 	6.42891e-17 	1.9176e-16 20 	6.41092e-17 	1.92019e-16 20 	6.39293e-17 	1.92278e-16 20 	6.37494e-17 	1.92537e-16 20 	6.35695e-17 	1.92796e-16 20 	-1.24081e-16 	2.81772e-16 20 	-1.92703e-16 	3.03881e-16 20 	-1.92703e-16 	3.03881e-16 20 	-1.92703e-16 	3.03881e-16 20 	-2.18636e-16 	2.83719e-16 20 	-2.27663e-16 	2.70624e-16 20 	-2.26456e-16 	2.5381e-16 20 	-2.26456e-16 	2.5381e-16 20 	-2.26456e-16 	2.5381e-16 20 	-2.13673e-16 	2.14571e-16 20 	-7.76534e-17 	1.46665e-16 20 	-2.68011e-17 	1.22231e-16 20 	-2.68011e-17 	1.22231e-16 20 	-2.68011e-17 	1.22231e-16 20 	-4.54545e-18 	1.14086e-16 20 	1.01289e-16 	1.43573e-16 20 	1.00429e-16 	1.40088e-16 20 	1.00429e-16 	1.40088e-16 20 	1.00429e-16 	1.40088e-16 20 	-8.08066e-18 	9.97544e-17 20 	-9.51862e-17 	7.10598e-17 20 	-1.39095e-16 	3.77327e-17 20 	-1.39095e-16 	3.77327e-17 20 	-1.39095e-16 	3.77327e-17 20 	-1.88652e-16 	-3.73017e-17 20 	-2.16792e-16 	-1.57883e-16 20 	-2.25966e-16 	-2.01308e-16 20 	-2.25966e-16 	-2.01308e-16 20 	-2.25966e-16 	-2.01308e-16 20 	-2.26378e-16 	-2.15888e-16 20 	-2.48261e-16 	-2.90744e-16 20 	-2.35932e-16 	-2.917e-16 20 	-2.35932e-16 	-2.917e-16 20 	-2.35932e-16 	-2.917e-16 20 	-1.75678e-16 	-2.19821e-16 20 	-1.70042e-16 	-1.47638e-16 20 	-1.68905e-16 	-1.14636e-16 20 	-1.68905e-16 	-1.14636e-16 20 	-1.68905e-16 	-1.14636e-16 20 	-1.71004e-16 	-8.41e-17 20 	-2.80608e-16 	-1.41834e-17 20 	-3.02259e-16 	2.11033e-17 20 	-3.02259e-16 	2.11033e-17 20 	-3.02259e-16 	2.11033e-17 20 	-2.6004e-16 	6.10148e-17 20 	-3.66872e-16 	1.08178e-16 20 	-3.8267e-16 	1.08029e-16 20 	-3.8267e-16 	1.08029e-16 20 	-3.8267e-16 	1.08029e-16 20 	-3.25007e-16 	6.0403e-17 20 	-3.76648e-16 	-2.27308e-17 20 	-3.82281e-16 	-5.56296e-17 20 	-3.82281e-16 	-5.56296e-17 20 	-3.82281e-16 	-5.56296e-17 20 	-3.48171e-16 	-7.48919e-17 20 	-4.01309e-16 	-1.78497e-16 20 	-4.1323e-16 	-2.09086e-16 20 	-4.1323e-16 	-2.09086e-16 20 	-4.1323e-16 	-2.09086e-16 20 	-3.97196e-16 	-2.00687e-16 20 	-5.04834e-16 	-2.85969e-16 20 	-5.07341e-16 	-3.03958e-16 20 	-5.07341e-16 	-3.03958e-16 20 	-5.07341e-16 	-3.03958e-16 20 	-4.07503e-16 	-2.74668e-16 20 	-4.81132e-16 	-2.5356e-16 20 	-4.94733e-16 	-2.31291e-16 20 	-4.94733e-16 	-2.31291e-16 20 	-4.94733e-16 	-2.31291e-16 20 	-4.6344e-16 	-1.83088e-16 20 	-5.29032e-16 	-1.08177e-16 20 	-5.37577e-16 	-9.08493e-17 20 	-5.37577e-16 	-9.08493e-17 20 	-5.37577e-16 	-9.08493e-17 20 	-4.98583e-16 	-1.1183e-16 20 	-5.24751e-16 	-1.70642e-16 20 	-6.35833e-16 	-2.36782e-16 20 	-8.14686e-16 	-3.19173e-16 20 	-9.9354e-16 	-4.01563e-16 20 	-1.10088e-15 	-4.56968e-16
20 	7.71299e-17 	2.29899e-16 20 	7.695e-17 	2.30158e-16 20 	7.67701e-17 	2.30417e-16 20 	7.65903e-17 	2.30676e-16 20 	7.64104e-17 	2.30935e-16 20 	7.62305e-17 	2.31194e-16 20 	-1.1142e-16 	3.2017e-16 20 	-2.36248e-16 	3.60389e-16 20 	-2.36248e-16 	3.60389e-16 20 	-2.36248e-16 	3.60389e-16 20 	-2.62181e-16 	3.40227e-16 20 	-2.71208e-16 	3.27132e-16 20 	-2.69013e-16 	2.96546e-16 20 	-2.69013e-16 	2.96546e-16 20 	-2.69013e-16 	2.96546e-16 20 	-2.5623e-16 	2.57307e-16 20 	-1.2021e-16 	1.89401e-16 20 	-2.77064e-17 	1.44953e-16 20 	-2.77064e-17 	1.44953e-16 20 	-2.77064e-17 	1.44953e-16 20 	-5.45076e-18 	1.36809e-16 20 	1.00384e-16 	1.66295e-16 20 	9.88199e-17 	1.59955e-16 20 	9.88199e-17 	1.59955e-16 20 	9.88199e-17 	1.59955e-16 20 	-9.69007e-18 	1.19622e-16 20 	-9.67956e-17 	9.09276e-17 20 	-1.76668e-16 	3.03034e-17 20 	-1.76668e-16 	3.03034e-17 20 	-1.76668e-16 	3.03034e-17 20 	-2.26226e-16 	-4.4731e-17 20 	-2.54366e-16 	-1.65312e-16 20 	-2.71053e-16 	-2.44306e-16 20 	-2.71053e-16 	-2.44306e-16 20 	-2.71053e-16 	-2.44306e-16 20 	-2.71465e-16 	-2.58886e-16 20 	-2.93348e-16 	-3.33742e-16 20 	-2.70922e-16 	-3.35482e-16 20 	-2.70922e-16 	-3.35482e-16 20 	-2.70922e-16 	-3.35482e-16 20 	-2.10667e-16 	-2.63602e-16 20 	-2.05031e-16 	-1.9142e-16 20 	-2.02964e-16 	-1.31386e-16 20 	-2.02964e-16 	-1.31386e-16 20 	-2.02964e-16 	-1.31386e-16 20 	-2.05063e-16 	-1.0085e-16 20 	-3.14667e-16 	-3.09334e-17 20 	-3.5405e-16 	3.32554e-17 20 	-3.5405e-16 	3.32554e-17 20 	-3.5405e-16 	3.32554e-17 20 	-3.11831e-16 	7.31669e-17 20 	-4.18664e-16 	1.2033e-16 20 	-4.47401e-16 	1.2006e-16 20 	-4.47401e-16 	1.2006e-16 20 	-4.47401e-16 	1.2006e-16 20 	-3.89738e-16 	7.24334e-17 20 	-4.41379e-16 	-1.07004e-17 20 	-4.51625e-16 	-7.05456e-17 20 	-4.51625e-16 	-7.05456e-17 20 	-4.51625e-16 	-7.05456e-17 20 	-4.17516e-16 	-8.98079e-17 20 	-4.70654e-16 	-1.93413e-16 20 	-4.92339e-16 	-2.49056e-16 20 	-4.92339e-16 	-2.49056e-16 20 	-4.92339e-16 	-2.49056e-16 20 	-4.76305e-16 	-2.40657e-16 20 	-5.83943e-16 	-3.25939e-16 20 	-5.88502e-16 	-3.58663e-16 20 	-5.88502e-16 	-3.58663e-16 20 	-5.88502e-16 	-3.58663e-16 20 	-4.88664e-16 	-3.29373e-16 20 	-5.62293e-16 	-3.08265e-16 20 	-5.87035e-16 	-2.67756e-16 20 	-5.87035e-16 	-2.67756e-16 20 	-5.87035e-16 	-2.67756e-16 20 	-5.55742e-16 	-2.19553e-16 20 	-6.21334e-16 	-1.44642e-16 20 	-6.36879e-16 	-1.13122e-16 20 	-6.36879e-16 	-1.13122e-16 20 	-6.36879e-16 	-1.13122e-16 20 	-5.97884e-16 	-1.34103e-16 20 	-6.24053e-16 	-1.92915e-16 20 	-6.79625e-16 	-2.45745e-16 20 	-8.58478e-16 	-3.28136e-16 20 	-1.03733e-15 	-4.10526e-16 20 	-1.14467e-15 	-4.65931e-16