# vtk DataFile Version 2.0
sampleSurface
ASCII
DATASET POLYDATA
POINTS 349 double
0 0 0
-0.5 -5.55112e-17 0.5
0.5 0 0.5
-1 0 0
0 0 1
1 0 0
-1 0 1
1 0 1
-0.5 0 1.5
-1.5 0 0.5
1.5 0 0.5
0.5 0 1.5
-2 0 0
2 0 0
0 0 2
1.5 0 1.5
-1.5 0 1.5
2 0 1
-2 0 1
-1 0 2
1 0 2
-0.5 0 2.5
-2.5 0 0.5
2.5 5.55112e-17 0.5
0.5 5.55112e-17 2.5
2 0 2
-2 0 2
2.5 0 1.5
1.5 2.77556e-17 2.5
-2.5 0 1.5
-1.5 0 2.5
-3 0 0
3 0 0
0 0 3
-3 0 1
3 0 1
-1 0 3
1 0 3
-3.5 0 0.5
3.5 0 0.5
-2.5 0 2.5
2.5 0 2.5
-0.5 0 3.5
0.5 0 3.5
-3 0 2
3 0 2
-2 0 3
2 0 3
3.5 0 1.5
-3.5 0 1.5
-1.5 0 3.5
1.5 0 3.5
-4 0 0
4 0 0
0 0 4
-4 0 1
4 0 1
-1 0 4
1 0 4
-3 0 3
3 0 3
-3.5 0 2.5
3.5 0 2.5
-2.5 0 3.5
2.5 0 3.5
-4 0 2
4 0 2
-2 0 4
2 0 4
-4.5 0 0.5
4.5 0 0.5
-0.5 0 4.5
0.5 0 4.5
-4.5 5.55112e-17 1.5
4.5 0 1.5
-1.5 0 4.5
1.5 0 4.5
-3.5 0 3.5
3.5 0 3.5
-5 0 0
5 0 0
-4 0 3
4 0 3
-3 0 4
3 0 4
0 0 5
-5 0 1
5 0 1
-1 0 5
1 0 5
-4.5 -5.55112e-17 2.5
4.5 0 2.5
-2.5 0 4.5
2.5 0 4.5
-5 0 2
5 0 2
-2 0 5
2 0 5
5.5 0 0.5
-0.5 0 5.5
0.5 0 5.5
-4 0 4
4 0 4
5.5 0 1.5
-4.5 0 3.5
4.5 0 3.5
-3.5 0 4.5
3.5 0 4.5
-1.5 0 5.5
1.5 0 5.5
-5 0 3
5 0 3
-3 0 5
3 0 5
6 0 0
0 0 6
5.5 0 2.5
-2.5 0 5.5
2.5 0 5.5
6 0 1
-1 0 6
1 0 6
6 0 2
-2 0 6
2 0 6
-4.5 0 4.5
4.5 0 4.5
-5 0 4
5 0 4
-4 0 5
4 0 5
6.5 0 0.5
5.5 0 3.5
-3.5 0 5.5
3.5 0 5.5
-0.5 0 6.5
0.5 5.55112e-17 6.5
6.5 0 1.5
-1.5 0 6.5
1.5 0 6.5
6 0 3
-3 0 6
3 0 6
2.5 0 6.5
6.5 0 2.5
-2.5 0 6.5
7 0 0
0 0 7
7 0 1
-5 0 5
5 0 5
-1 0 7
1 0 7
5.5 0 4.5
-4.5 0 5.5
4.5 0 5.5
6 0 4
-4 0 6
4 0 6
7 0 2
-2 0 7
2 0 7
6.5 0 3.5
-3.5 0 6.5
3.5 0 6.5
7.5 0 0.5
-0.5 0 7.5
0.5 0 7.5
7 0 3
-3 0 7
3 0 7
7.5 0 1.5
-1.5 0 7.5
1.5 0 7.5
5.5 0 5.5
6 0 5
-5 0 6
5 0 6
7.5 0 2.5
6.5 0 4.5
-4.5 0 6.5
4.5 0 6.5
-2.5 0 7.5
2.5 0 7.5
8 0 0
0 0 8
8 0 1
7 0 4
-4 0 7
4 0 7
-1 0 8
1 0 8
8 0 2
-2 0 8
2 0 8
7.5 0 3.5
-3.5 0 7.5
3.5 0 7.5
6 0 6
8.5 0 0.5
6.5 0 5.5
5.5 0 6.5
8 0 3
-3 0 8
3 0 8
7 0 5
-5 0 7
5 0 7
8.5 0 1.5
7.5 0 4.5
-4.5 0 7.5
4.5 0 7.5
8.5 0 2.5
8 0 4
-4 0 8
4 0 8
9 0 0
9 0 1
8.5 0 3.5
6.5 0 6.5
9 0 2
7 0 6
6 0 7
7.5 0 5.5
5.5 0 7.5
8 0 5
-5 0 8
5 0 8
9 0 3
9.5 0 0.5
9.5 0 1.5
8.5 0 4.5
9.5 0 2.5
9 0 4
7 0 7
7.5 0 6.5
6.5 0 7.5
10 0 0
8 0 6
6 0 8
10 0 1
9.5 0 3.5
8.5 0 5.5
10 0 2
9 0 5
10 0 3
10.5 0 0.5
9.5 0 4.5
10.5 0 1.5
7.5 0 7.5
8 0 7
7 0 8
8.5 0 6.5
10 0 4
10.5 0 2.5
9 0 6
9.5 0 5.5
11 0 0
11 0 1
10.5 0 3.5
11 0 2
10 0 5
8 0 8
8.5 0 7.5
11 0 3
9 0 7
10.5 0 4.5
11.5 0 0.5
9.5 0 6.5
11.5 0 1.5
10 0 6
11 0 4
11.5 0 2.5
10.5 0 5.5
12 0 0
11.5 0 3.5
12 0 1
9 0 8
11 0 5
9.5 0 7.5
12 0 2
10 0 7
11.5 0 4.5
10.5 0 6.5
12 0 3
12.5 0 0.5
11 0 6
12.5 0 1.5
12 0 4
12.5 0 2.5
11.5 0 5.5
10 0 8
10.5 0 7.5
12.5 0 3.5
13 0 0
12 0 5
13 0 1
11 0 7
13 0 2
11.5 5.55112e-17 6.5
12.5 0 4.5
13 0 3
12 0 6
13.5 0 0.5
13.5 0 1.5
13 0 4
11 0 8
12.5 0 5.5
13.5 0 2.5
11.5 0 7.5
12 0 7
13 0 5
13.5 0 3.5
14 0 0
14 0 1
12.5 0 6.5
14 0 2
13.5 0 4.5
14 0 3
13 0 6
12 0 8
14.5 0 0.5
14 0 4
14.5 0 1.5
13.5 0 5.5
12.5 0 7.5
14.5 0 2.5
13 0 7
14 0 5
14.5 0 3.5
13.5 0 6.5
15 0 0
15 0 1
15 0 2
14.5 0 4.5
14 0 6
13 0 8
15 0 3
13.5 5.55112e-17 7.5
14.5 0 5.5
15 0 4
14 0 7
15 0 5
14.5 -5.55112e-17 6.5
14 0 8
15 0 6
14.5 5.55112e-17 7.5
15 0 7
15 0 8

POLYGONS 640 2560
3 79 86 69
3 86 55 69
3 55 52 69
3 52 79 69
3 52 55 38
3 55 34 38
3 34 31 38
3 31 52 38
3 31 34 22
3 34 18 22
3 18 12 22
3 12 31 22
3 12 18 9
3 18 6 9
3 6 3 9
3 3 12 9
3 3 6 1
3 6 4 1
3 4 0 1
3 0 3 1
3 0 4 2
3 4 7 2
3 7 5 2
3 5 0 2
3 5 7 10
3 7 17 10
3 17 13 10
3 13 5 10
3 13 17 23
3 17 35 23
3 35 32 23
3 32 13 23
3 32 35 39
3 35 56 39
3 56 53 39
3 53 32 39
3 53 56 70
3 56 87 70
3 87 80 70
3 80 53 70
3 80 87 98
3 87 119 98
3 119 114 98
3 114 80 98
3 114 119 131
3 119 148 131
3 148 146 131
3 146 114 131
3 146 148 165
3 148 186 165
3 186 184 165
3 184 146 165
3 184 186 199
3 186 217 199
3 217 216 199
3 216 184 199
3 216 217 229
3 217 240 229
3 240 237 229
3 237 216 229
3 237 240 246
3 240 258 246
3 258 257 246
3 257 237 246
3 257 258 267
3 258 276 267
3 276 274 267
3 274 257 267
3 274 276 285
3 276 296 285
3 296 294 285
3 294 274 285
3 294 296 303
3 296 314 303
3 314 313 303
3 313 294 303
3 313 314 321
3 314 332 321
3 332 331 321
3 331 313 321
3 86 94 73
3 94 65 73
3 65 55 73
3 55 86 73
3 55 65 49
3 65 44 49
3 44 34 49
3 34 55 49
3 34 44 29
3 44 26 29
3 26 18 29
3 18 34 29
3 18 26 16
3 26 19 16
3 19 6 16
3 6 18 16
3 6 19 8
3 19 14 8
3 14 4 8
3 4 6 8
3 4 14 11
3 14 20 11
3 20 7 11
3 7 4 11
3 7 20 15
3 20 25 15
3 25 17 15
3 17 7 15
3 17 25 27
3 25 45 27
3 45 35 27
3 35 17 27
3 35 45 48
3 45 66 48
3 66 56 48
3 56 35 48
3 56 66 74
3 66 95 74
3 95 87 74
3 87 56 74
3 87 95 103
3 95 122 103
3 122 119 103
3 119 87 103
3 119 122 137
3 122 159 137
3 159 148 137
3 148 119 137
3 148 159 171
3 159 192 171
3 192 186 171
3 186 148 171
3 186 192 208
3 192 220 208
3 220 217 208
3 217 186 208
3 217 220 230
3 220 243 230
3 243 240 230
3 240 217 230
3 240 243 248
3 243 260 248
3 260 258 248
3 258 240 248
3 258 260 269
3 260 280 269
3 280 276 269
3 276 258 269
3 276 280 287
3 280 298 287
3 298 296 287
3 296 276 287
3 296 298 304
3 298 316 304
3 316 314 304
3 314 296 304
3 314 316 323
3 316 333 323
3 333 332 323
3 332 314 323
3 94 110 90
3 110 81 90
3 81 65 90
3 65 94 90
3 65 81 61
3 81 59 61
3 59 44 61
3 44 65 61
3 44 59 40
3 59 46 40
3 46 26 40
3 26 44 40
3 26 46 30
3 46 36 30
3 36 19 30
3 19 26 30
3 19 36 21
3 36 33 21
3 33 14 21
3 14 19 21
3 14 33 24
3 33 37 24
3 37 20 24
3 20 14 24
3 20 37 28
3 37 47 28
3 47 25 28
3 25 20 28
3 25 47 41
3 47 60 41
3 60 45 41
3 45 25 41
3 45 60 62
3 60 82 62
3 82 66 62
3 66 45 62
3 66 82 91
3 82 111 91
3 111 95 91
3 95 66 91
3 95 111 116
3 111 140 116
3 140 122 116
3 122 95 116
3 122 140 144
3 140 168 144
3 168 159 144
3 159 122 144
3 159 168 178
3 168 202 178
3 202 192 178
3 192 159 178
3 192 202 212
3 202 228 212
3 228 220 212
3 220 192 212
3 220 228 232
3 228 245 232
3 245 243 232
3 243 220 232
3 243 245 254
3 245 264 254
3 264 260 254
3 260 243 254
3 260 264 272
3 264 284 272
3 284 280 272
3 280 260 272
3 280 284 289
3 284 301 289
3 301 298 289
3 298 280 289
3 298 301 308
3 301 318 308
3 318 316 308
3 316 298 308
3 316 318 326
3 318 337 326
3 337 333 326
3 333 316 326
3 110 127 104
3 127 101 104
3 101 81 104
3 81 110 104
3 81 101 77
3 101 83 77
3 83 59 77
3 59 81 77
3 59 83 63
3 83 67 63
3 67 46 63
3 46 59 63
3 46 67 50
3 67 57 50
3 57 36 50
3 36 46 50
3 36 57 42
3 57 54 42
3 54 33 42
3 33 36 42
3 33 54 43
3 54 58 43
3 58 37 43
3 37 33 43
3 37 58 51
3 58 68 51
3 68 47 51
3 47 37 51
3 47 68 64
3 68 84 64
3 84 60 64
3 60 47 64
3 60 84 78
3 84 102 78
3 102 82 78
3 82 60 78
3 82 102 105
3 102 128 105
3 128 111 105
3 111 82 105
3 111 128 132
3 128 156 132
3 156 140 132
3 140 111 132
3 140 156 162
3 156 187 162
3 187 168 162
3 168 140 162
3 168 187 195
3 187 213 195
3 213 202 195
3 202 168 195
3 202 213 218
3 213 233 218
3 233 228 218
3 228 202 218
3 228 233 241
3 233 253 241
3 253 245 241
3 245 228 241
3 245 253 259
3 253 271 259
3 271 264 259
3 264 245 259
3 264 271 275
3 271 288 275
3 288 284 275
3 284 264 275
3 284 288 293
3 288 305 293
3 305 301 293
3 301 284 293
3 301 305 312
3 305 322 312
3 322 318 312
3 318 301 312
3 318 322 329
3 322 340 329
3 340 337 329
3 337 318 329
3 127 149 125
3 149 129 125
3 129 101 125
3 101 127 125
3 101 129 106
3 129 112 106
3 112 83 106
3 83 101 106
3 83 112 92
3 112 96 92
3 96 67 92
3 67 83 92
3 67 96 75
3 96 88 75
3 88 57 75
3 57 67 75
3 57 88 71
3 88 85 71
3 85 54 71
3 54 57 71
3 54 85 72
3 85 89 72
3 89 58 72
3 58 54 72
3 58 89 76
3 89 97 76
3 97 68 76
3 68 58 76
3 68 97 93
3 97 113 93
3 113 84 93
3 84 68 93
3 84 113 107
3 113 130 107
3 130 102 107
3 102 84 107
3 102 130 126
3 130 150 126
3 150 128 126
3 128 102 126
3 128 150 153
3 150 175 153
3 175 156 153
3 156 128 153
3 156 175 179
3 175 205 179
3 205 187 179
3 187 156 179
3 187 205 209
3 205 225 209
3 225 213 209
3 213 187 209
3 213 225 231
3 225 244 231
3 244 233 231
3 233 213 231
3 233 244 247
3 244 261 247
3 261 253 247
3 253 233 247
3 253 261 266
3 261 278 266
3 278 271 266
3 271 253 266
3 271 278 282
3 278 295 282
3 295 288 282
3 288 271 282
3 288 295 300
3 295 311 300
3 311 305 300
3 305 288 300
3 305 311 317
3 311 328 317
3 328 322 317
3 322 305 317
3 322 328 334
3 328 342 334
3 342 340 334
3 340 322 334
3 149 176 154
3 176 157 154
3 157 129 154
3 129 149 154
3 129 157 133
3 157 141 133
3 141 112 133
3 112 129 133
3 112 141 117
3 141 123 117
3 123 96 117
3 96 112 117
3 96 123 108
3 123 120 108
3 120 88 108
3 88 96 108
3 88 120 99
3 120 115 99
3 115 85 99
3 85 88 99
3 85 115 100
3 115 121 100
3 121 89 100
3 89 85 100
3 89 121 109
3 121 124 109
3 124 97 109
3 97 89 109
3 97 124 118
3 124 142 118
3 142 113 118
3 113 97 118
3 113 142 134
3 142 158 134
3 158 130 134
3 130 113 134
3 130 158 155
3 158 177 155
3 177 150 155
3 150 130 155
3 150 177 174
3 177 198 174
3 198 175 174
3 175 150 174
3 175 198 200
3 198 221 200
3 221 205 200
3 205 175 200
3 205 221 223
3 221 238 223
3 238 225 223
3 225 205 223
3 225 238 242
3 238 255 242
3 255 244 242
3 244 225 242
3 244 255 256
3 255 270 256
3 270 261 256
3 261 244 256
3 261 270 273
3 270 286 273
3 286 278 273
3 278 261 273
3 278 286 290
3 286 302 290
3 302 295 290
3 295 278 290
3 295 302 307
3 302 319 307
3 319 311 307
3 311 295 307
3 311 319 324
3 319 335 324
3 335 328 324
3 328 311 324
3 328 335 339
3 335 345 339
3 345 342 339
3 342 328 339
3 176 206 180
3 206 188 180
3 188 157 180
3 157 176 180
3 157 188 163
3 188 169 163
3 169 141 163
3 141 157 163
3 141 169 145
3 169 160 145
3 160 123 145
3 123 141 145
3 123 160 138
3 160 151 138
3 151 120 138
3 120 123 138
3 120 151 135
3 151 147 135
3 147 115 135
3 115 120 135
3 115 147 136
3 147 152 136
3 152 121 136
3 121 115 136
3 121 152 139
3 152 161 139
3 161 124 139
3 124 121 139
3 124 161 143
3 161 170 143
3 170 142 143
3 142 124 143
3 142 170 164
3 170 189 164
3 189 158 164
3 158 142 164
3 158 189 181
3 189 207 181
3 207 177 181
3 177 158 181
3 177 207 201
3 207 222 201
3 222 198 201
3 198 177 201
3 198 222 219
3 222 234 219
3 234 221 219
3 221 198 219
3 221 234 235
3 234 250 235
3 250 238 235
3 238 221 235
3 238 250 252
3 250 265 252
3 265 255 252
3 255 238 252
3 255 265 268
3 265 281 268
3 281 270 268
3 270 255 268
3 270 281 283
3 281 297 283
3 297 286 283
3 286 270 283
3 286 297 299
3 297 310 299
3 310 302 299
3 302 286 299
3 302 310 315
3 310 327 315
3 327 319 315
3 319 302 315
3 319 327 330
3 327 341 330
3 341 335 330
3 335 319 330
3 335 341 343
3 341 347 343
3 347 345 343
3 345 335 343
3 206 226 210
3 226 214 210
3 214 188 210
3 188 206 210
3 188 214 196
3 214 203 196
3 203 169 196
3 169 188 196
3 169 203 182
3 203 193 182
3 193 160 182
3 160 169 182
3 160 193 172
3 193 190 172
3 190 151 172
3 151 160 172
3 151 190 166
3 190 185 166
3 185 147 166
3 147 151 166
3 147 185 167
3 185 191 167
3 191 152 167
3 152 147 167
3 152 191 173
3 191 194 173
3 194 161 173
3 161 152 173
3 161 194 183
3 194 204 183
3 204 170 183
3 170 161 183
3 170 204 197
3 204 215 197
3 215 189 197
3 189 170 197
3 189 215 211
3 215 227 211
3 227 207 211
3 207 189 211
3 207 227 224
3 227 239 224
3 239 222 224
3 222 207 224
3 222 239 236
3 239 251 236
3 251 234 236
3 234 222 236
3 234 251 249
3 251 262 249
3 262 250 249
3 250 234 249
3 250 262 263
3 262 277 263
3 277 265 263
3 265 250 263
3 265 277 279
3 277 291 279
3 291 281 279
3 281 265 279
3 281 291 292
3 291 306 292
3 306 297 292
3 297 281 292
3 297 306 309
3 306 320 309
3 320 310 309
3 310 297 309
3 310 320 325
3 320 336 325
3 336 327 325
3 327 310 325
3 327 336 338
3 336 344 338
3 344 341 338
3 341 327 338
3 341 344 346
3 344 348 346
3 348 347 346
3 347 341 346
POINT_DATA 349
FIELD attributes 1
p 1 349 float
-1.36761e-13 -1.26877e-13 -1.46646e-13 -1.43336e-13 -1.39487e-13 -1.61941e-13 -1.4671e-13 -1.55808e-13 -1.3859e-13 -1.59795e-13
-1.77236e-13 -1.45836e-13 -1.54955e-13 -1.73886e-13 -1.48533e-13 -1.53515e-13 -1.61579e-13 -1.6496e-13 -1.56327e-13 -1.47786e-13
-1.54418e-13 -1.44256e-13 -1.50115e-13 -1.70535e-13 -1.65448e-13 -1.53098e-13 -1.55244e-13 -1.58552e-13 -1.52872e-13 -1.5382e-13
-1.46718e-13 -1.58253e-13 -1.50396e-13 -1.56118e-13 -1.60394e-13 -1.46729e-13 -1.47564e-13 -1.57375e-13 -1.6639e-13 -1.30257e-13
-1.5886e-13 -1.47454e-13 -1.49485e-13 -1.65282e-13 -1.61901e-13 -1.42054e-13 -1.56507e-13 -1.4452e-13 -1.27572e-13 -1.7125e-13
-1.49798e-13 -1.459e-13 -1.54779e-13 -1.16225e-13 -1.56529e-13 -1.62579e-13 -1.13225e-13 -1.55844e-13 -1.5333e-13 -1.67856e-13
-1.36276e-13 -1.63673e-13 -1.34637e-13 -1.70654e-13 -1.31855e-13 -1.65767e-13 -1.13106e-13 -1.64816e-13 -1.42562e-13 -1.43168e-13
-1.02193e-13 -1.56216e-13 -1.55133e-13 -1.69508e-13 -9.28767e-14 -1.67878e-13 -1.47007e-13 -1.78238e-13 -1.31157e-13 -1.43168e-13
-1.07328e-13 -1.64483e-13 -1.21339e-13 -1.67998e-13 -1.34357e-13 -1.56517e-13 -1.56338e-13 -1.04788e-13 -1.57943e-13 -1.54939e-13
-1.58637e-13 -9.734e-14 -1.70935e-13 -1.45485e-13 -1.64073e-13 -1.03111e-13 -1.63932e-13 -1.45984e-13 -1.12463e-13 -1.53499e-13
-1.61219e-13 -1.60454e-13 -1.25099e-13 -1.11618e-13 -1.57383e-13 -1.22222e-13 -1.52164e-13 -1.28931e-13 -1.54178e-13 -1.56396e-13
-1.5801e-13 -1.12937e-13 -1.66791e-13 -1.32737e-13 -1.20383e-13 -1.47882e-13 -1.10609e-13 -1.62737e-13 -1.35049e-13 -1.21131e-13
-1.51802e-13 -1.57837e-13 -1.2013e-13 -1.6692e-13 -1.55667e-13 -1.54031e-13 -1.18087e-13 -1.55707e-13 -1.19275e-13 -1.61982e-13
-1.21575e-13 -1.28303e-13 -1.21575e-13 -1.81328e-13 -1.21483e-13 -1.29319e-13 -1.47492e-13 -1.32139e-13 -1.70212e-13 -1.66242e-13
-1.19443e-13 -1.74512e-13 -1.39261e-13 -1.6498e-13 -1.26152e-13 -1.80554e-13 -1.05658e-13 -1.34887e-13 -1.10465e-13 -1.57218e-13
-1.17413e-13 -1.40776e-13 -1.65388e-13 -1.15217e-13 -1.60406e-13 -1.178e-13 -1.1427e-13 -1.5765e-13 -1.22906e-13 -1.13635e-13
-1.70482e-13 -1.78863e-13 -1.19434e-13 -1.7343e-13 -1.35532e-13 -8.30116e-14 -1.08108e-13 -1.54628e-13 -1.10686e-13 -1.72107e-13
-1.57759e-13 -9.84077e-14 -1.55462e-13 -1.93192e-13 -1.18548e-13 -1.08245e-13 -1.37922e-13 -1.16275e-13 -9.78429e-14 -1.00855e-13
-1.15437e-13 -1.16809e-13 -1.757e-13 -1.91039e-13 -7.55753e-14 -1.31368e-13 -8.40436e-14 -1.01402e-13 -1.41686e-13 -1.2662e-13
-1.31785e-13 -1.7391e-13 -9.01785e-14 -1.65581e-13 -1.92116e-13 -9.93174e-14 -1.58745e-13 -1.39485e-13 -1.06185e-13 -6.81391e-14
-9.83606e-14 -1.11943e-13 -8.76111e-14 -1.67222e-13 -1.65262e-13 -8.99307e-14 -1.17285e-13 -1.13328e-13 -8.66162e-14 -8.60036e-14
-1.19133e-13 -1.14654e-13 -7.7847e-14 -8.46573e-14 -1.38939e-13 -1.2707e-13 -7.93847e-14 -7.98958e-14 -7.5437e-14 -9.58902e-14
-7.61548e-14 -8.5106e-14 -1.00436e-13 -7.45038e-14 -1.09906e-13 -7.56083e-14 -1.19133e-13 -1.1228e-13 -7.00952e-14 -9.06304e-14
-7.41975e-14 -7.78712e-14 -6.59584e-14 -6.80687e-14 -7.85897e-14 -7.16693e-14 -8.40034e-14 -8.4597e-14 -6.72328e-14 -9.69545e-14
-7.67446e-14 -6.11383e-14 -6.40545e-14 -6.51734e-14 -6.62973e-14 -5.69865e-14 -7.85636e-14 -5.78283e-14 -6.35868e-14 -6.2796e-14
-6.4722e-14 -7.33997e-14 -5.87035e-14 -4.88409e-14 -5.69509e-14 -6.16301e-14 -6.54354e-14 -5.78288e-14 -5.58535e-14 -4.38983e-14
-4.93142e-14 -5.2172e-14 -6.42575e-14 -6.5719e-14 -4.12317e-14 -5.77484e-14 -3.24986e-14 -3.70941e-14 -5.8327e-14 -4.41697e-14
-5.53554e-14 -3.41878e-14 -3.25494e-14 -5.29258e-14 -1.76269e-14 -3.15285e-14 -2.24281e-14 -5.69815e-14 -3.65226e-14 -4.8244e-14
-2.59911e-14 -4.73287e-14 -2.88257e-14 -4.47334e-14 -2.81593e-14 1.84024e-15 -3.81161e-14 -1.02888e-14 -3.06106e-14 -1.69566e-14
-3.18403e-14 -4.31272e-14 -3.80104e-14 -3.16028e-14 5.05158e-15 -2.92626e-14 -4.04303e-15 -3.27087e-14 -1.32064e-14 -2.29647e-14
-3.04853e-14 -1.60782e-14 -2.317e-14 8.26291e-15 -1.59865e-14 -1.97006e-14 -3.15684e-14 -2.58992e-14 -9.59371e-15 -2.51265e-14
-1.84527e-14 -1.97906e-14 -6.15977e-15 3.69774e-15 -2.03252e-15 -1.19759e-14 -7.01624e-15 -1.05546e-14 -3.64756e-15 -1.50482e-14
-1.94352e-14 -8.67424e-16 -2.03038e-15 4.6087e-16 -1.22232e-14 -1.37439e-14 -2.94566e-15 -1.02312e-14 -4.0021e-15 4.10888e-15
-1.00945e-14 -4.33712e-16 0 0 4.48396e-15 -5.89208e-15 -9.42728e-15 0 -5.11071e-15 2.2854e-15
0 -7.46716e-15 0 -3.53608e-15 -8.11903e-15 0 -1.11273e-14 0 -5.56367e-15
