# vtk DataFile Version 2.0
sampleSurface
ASCII
DATASET POLYDATA
POINTS 349 double
0 0 0
-0.5 -5.55112e-17 0.5
0.5 0 0.5
-1 0 0
0 0 1
1 0 0
-1 0 1
1 0 1
-0.5 0 1.5
-1.5 0 0.5
1.5 0 0.5
0.5 0 1.5
-2 0 0
2 0 0
0 0 2
1.5 0 1.5
-1.5 0 1.5
2 0 1
-2 0 1
-1 0 2
1 0 2
-0.5 0 2.5
-2.5 0 0.5
2.5 5.55112e-17 0.5
0.5 5.55112e-17 2.5
2 0 2
-2 0 2
2.5 0 1.5
1.5 2.77556e-17 2.5
-2.5 0 1.5
-1.5 0 2.5
-3 0 0
3 0 0
0 0 3
-3 0 1
3 0 1
-1 0 3
1 0 3
-3.5 0 0.5
3.5 0 0.5
-2.5 0 2.5
2.5 0 2.5
-0.5 0 3.5
0.5 0 3.5
-3 0 2
3 0 2
-2 0 3
2 0 3
3.5 0 1.5
-3.5 0 1.5
-1.5 0 3.5
1.5 0 3.5
-4 0 0
4 0 0
0 0 4
-4 0 1
4 0 1
-1 0 4
1 0 4
-3 0 3
3 0 3
-3.5 0 2.5
3.5 0 2.5
-2.5 0 3.5
2.5 0 3.5
-4 0 2
4 0 2
-2 0 4
2 0 4
-4.5 0 0.5
4.5 0 0.5
-0.5 0 4.5
0.5 0 4.5
-4.5 5.55112e-17 1.5
4.5 0 1.5
-1.5 0 4.5
1.5 0 4.5
-3.5 0 3.5
3.5 0 3.5
-5 0 0
5 0 0
-4 0 3
4 0 3
-3 0 4
3 0 4
0 0 5
-5 0 1
5 0 1
-1 0 5
1 0 5
-4.5 -5.55112e-17 2.5
4.5 0 2.5
-2.5 0 4.5
2.5 0 4.5
-5 0 2
5 0 2
-2 0 5
2 0 5
5.5 0 0.5
-0.5 0 5.5
0.5 0 5.5
-4 0 4
4 0 4
5.5 0 1.5
-4.5 0 3.5
4.5 0 3.5
-3.5 0 4.5
3.5 0 4.5
-1.5 0 5.5
1.5 0 5.5
-5 0 3
5 0 3
-3 0 5
3 0 5
6 0 0
0 0 6
5.5 0 2.5
-2.5 0 5.5
2.5 0 5.5
6 0 1
-1 0 6
1 0 6
6 0 2
-2 0 6
2 0 6
-4.5 0 4.5
4.5 0 4.5
-5 0 4
5 0 4
-4 0 5
4 0 5
6.5 0 0.5
5.5 0 3.5
-3.5 0 5.5
3.5 0 5.5
-0.5 0 6.5
0.5 5.55112e-17 6.5
6.5 0 1.5
-1.5 0 6.5
1.5 0 6.5
6 0 3
-3 0 6
3 0 6
2.5 0 6.5
6.5 0 2.5
-2.5 0 6.5
7 0 0
0 0 7
7 0 1
-5 0 5
5 0 5
-1 0 7
1 0 7
5.5 0 4.5
-4.5 0 5.5
4.5 0 5.5
6 0 4
-4 0 6
4 0 6
7 0 2
-2 0 7
2 0 7
6.5 0 3.5
-3.5 0 6.5
3.5 0 6.5
7.5 0 0.5
-0.5 0 7.5
0.5 0 7.5
7 0 3
-3 0 7
3 0 7
7.5 0 1.5
-1.5 0 7.5
1.5 0 7.5
5.5 0 5.5
6 0 5
-5 0 6
5 0 6
7.5 0 2.5
6.5 0 4.5
-4.5 0 6.5
4.5 0 6.5
-2.5 0 7.5
2.5 0 7.5
8 0 0
0 0 8
8 0 1
7 0 4
-4 0 7
4 0 7
-1 0 8
1 0 8
8 0 2
-2 0 8
2 0 8
7.5 0 3.5
-3.5 0 7.5
3.5 0 7.5
6 0 6
8.5 0 0.5
6.5 0 5.5
5.5 0 6.5
8 0 3
-3 0 8
3 0 8
7 0 5
-5 0 7
5 0 7
8.5 0 1.5
7.5 0 4.5
-4.5 0 7.5
4.5 0 7.5
8.5 0 2.5
8 0 4
-4 0 8
4 0 8
9 0 0
9 0 1
8.5 0 3.5
6.5 0 6.5
9 0 2
7 0 6
6 0 7
7.5 0 5.5
5.5 0 7.5
8 0 5
-5 0 8
5 0 8
9 0 3
9.5 0 0.5
9.5 0 1.5
8.5 0 4.5
9.5 0 2.5
9 0 4
7 0 7
7.5 0 6.5
6.5 0 7.5
10 0 0
8 0 6
6 0 8
10 0 1
9.5 0 3.5
8.5 0 5.5
10 0 2
9 0 5
10 0 3
10.5 0 0.5
9.5 0 4.5
10.5 0 1.5
7.5 0 7.5
8 0 7
7 0 8
8.5 0 6.5
10 0 4
10.5 0 2.5
9 0 6
9.5 0 5.5
11 0 0
11 0 1
10.5 0 3.5
11 0 2
10 0 5
8 0 8
8.5 0 7.5
11 0 3
9 0 7
10.5 0 4.5
11.5 0 0.5
9.5 0 6.5
11.5 0 1.5
10 0 6
11 0 4
11.5 0 2.5
10.5 0 5.5
12 0 0
11.5 0 3.5
12 0 1
9 0 8
11 0 5
9.5 0 7.5
12 0 2
10 0 7
11.5 0 4.5
10.5 0 6.5
12 0 3
12.5 0 0.5
11 0 6
12.5 0 1.5
12 0 4
12.5 0 2.5
11.5 0 5.5
10 0 8
10.5 0 7.5
12.5 0 3.5
13 0 0
12 0 5
13 0 1
11 0 7
13 0 2
11.5 5.55112e-17 6.5
12.5 0 4.5
13 0 3
12 0 6
13.5 0 0.5
13.5 0 1.5
13 0 4
11 0 8
12.5 0 5.5
13.5 0 2.5
11.5 0 7.5
12 0 7
13 0 5
13.5 0 3.5
14 0 0
14 0 1
12.5 0 6.5
14 0 2
13.5 0 4.5
14 0 3
13 0 6
12 0 8
14.5 0 0.5
14 0 4
14.5 0 1.5
13.5 0 5.5
12.5 0 7.5
14.5 0 2.5
13 0 7
14 0 5
14.5 0 3.5
13.5 0 6.5
15 0 0
15 0 1
15 0 2
14.5 0 4.5
14 0 6
13 0 8
15 0 3
13.5 5.55112e-17 7.5
14.5 0 5.5
15 0 4
14 0 7
15 0 5
14.5 -5.55112e-17 6.5
14 0 8
15 0 6
14.5 5.55112e-17 7.5
15 0 7
15 0 8

POLYGONS 640 2560
3 79 86 69
3 86 55 69
3 55 52 69
3 52 79 69
3 52 55 38
3 55 34 38
3 34 31 38
3 31 52 38
3 31 34 22
3 34 18 22
3 18 12 22
3 12 31 22
3 12 18 9
3 18 6 9
3 6 3 9
3 3 12 9
3 3 6 1
3 6 4 1
3 4 0 1
3 0 3 1
3 0 4 2
3 4 7 2
3 7 5 2
3 5 0 2
3 5 7 10
3 7 17 10
3 17 13 10
3 13 5 10
3 13 17 23
3 17 35 23
3 35 32 23
3 32 13 23
3 32 35 39
3 35 56 39
3 56 53 39
3 53 32 39
3 53 56 70
3 56 87 70
3 87 80 70
3 80 53 70
3 80 87 98
3 87 119 98
3 119 114 98
3 114 80 98
3 114 119 131
3 119 148 131
3 148 146 131
3 146 114 131
3 146 148 165
3 148 186 165
3 186 184 165
3 184 146 165
3 184 186 199
3 186 217 199
3 217 216 199
3 216 184 199
3 216 217 229
3 217 240 229
3 240 237 229
3 237 216 229
3 237 240 246
3 240 258 246
3 258 257 246
3 257 237 246
3 257 258 267
3 258 276 267
3 276 274 267
3 274 257 267
3 274 276 285
3 276 296 285
3 296 294 285
3 294 274 285
3 294 296 303
3 296 314 303
3 314 313 303
3 313 294 303
3 313 314 321
3 314 332 321
3 332 331 321
3 331 313 321
3 86 94 73
3 94 65 73
3 65 55 73
3 55 86 73
3 55 65 49
3 65 44 49
3 44 34 49
3 34 55 49
3 34 44 29
3 44 26 29
3 26 18 29
3 18 34 29
3 18 26 16
3 26 19 16
3 19 6 16
3 6 18 16
3 6 19 8
3 19 14 8
3 14 4 8
3 4 6 8
3 4 14 11
3 14 20 11
3 20 7 11
3 7 4 11
3 7 20 15
3 20 25 15
3 25 17 15
3 17 7 15
3 17 25 27
3 25 45 27
3 45 35 27
3 35 17 27
3 35 45 48
3 45 66 48
3 66 56 48
3 56 35 48
3 56 66 74
3 66 95 74
3 95 87 74
3 87 56 74
3 87 95 103
3 95 122 103
3 122 119 103
3 119 87 103
3 119 122 137
3 122 159 137
3 159 148 137
3 148 119 137
3 148 159 171
3 159 192 171
3 192 186 171
3 186 148 171
3 186 192 208
3 192 220 208
3 220 217 208
3 217 186 208
3 217 220 230
3 220 243 230
3 243 240 230
3 240 217 230
3 240 243 248
3 243 260 248
3 260 258 248
3 258 240 248
3 258 260 269
3 260 280 269
3 280 276 269
3 276 258 269
3 276 280 287
3 280 298 287
3 298 296 287
3 296 276 287
3 296 298 304
3 298 316 304
3 316 314 304
3 314 296 304
3 314 316 323
3 316 333 323
3 333 332 323
3 332 314 323
3 94 110 90
3 110 81 90
3 81 65 90
3 65 94 90
3 65 81 61
3 81 59 61
3 59 44 61
3 44 65 61
3 44 59 40
3 59 46 40
3 46 26 40
3 26 44 40
3 26 46 30
3 46 36 30
3 36 19 30
3 19 26 30
3 19 36 21
3 36 33 21
3 33 14 21
3 14 19 21
3 14 33 24
3 33 37 24
3 37 20 24
3 20 14 24
3 20 37 28
3 37 47 28
3 47 25 28
3 25 20 28
3 25 47 41
3 47 60 41
3 60 45 41
3 45 25 41
3 45 60 62
3 60 82 62
3 82 66 62
3 66 45 62
3 66 82 91
3 82 111 91
3 111 95 91
3 95 66 91
3 95 111 116
3 111 140 116
3 140 122 116
3 122 95 116
3 122 140 144
3 140 168 144
3 168 159 144
3 159 122 144
3 159 168 178
3 168 202 178
3 202 192 178
3 192 159 178
3 192 202 212
3 202 228 212
3 228 220 212
3 220 192 212
3 220 228 232
3 228 245 232
3 245 243 232
3 243 220 232
3 243 245 254
3 245 264 254
3 264 260 254
3 260 243 254
3 260 264 272
3 264 284 272
3 284 280 272
3 280 260 272
3 280 284 289
3 284 301 289
3 301 298 289
3 298 280 289
3 298 301 308
3 301 318 308
3 318 316 308
3 316 298 308
3 316 318 326
3 318 337 326
3 337 333 326
3 333 316 326
3 110 127 104
3 127 101 104
3 101 81 104
3 81 110 104
3 81 101 77
3 101 83 77
3 83 59 77
3 59 81 77
3 59 83 63
3 83 67 63
3 67 46 63
3 46 59 63
3 46 67 50
3 67 57 50
3 57 36 50
3 36 46 50
3 36 57 42
3 57 54 42
3 54 33 42
3 33 36 42
3 33 54 43
3 54 58 43
3 58 37 43
3 37 33 43
3 37 58 51
3 58 68 51
3 68 47 51
3 47 37 51
3 47 68 64
3 68 84 64
3 84 60 64
3 60 47 64
3 60 84 78
3 84 102 78
3 102 82 78
3 82 60 78
3 82 102 105
3 102 128 105
3 128 111 105
3 111 82 105
3 111 128 132
3 128 156 132
3 156 140 132
3 140 111 132
3 140 156 162
3 156 187 162
3 187 168 162
3 168 140 162
3 168 187 195
3 187 213 195
3 213 202 195
3 202 168 195
3 202 213 218
3 213 233 218
3 233 228 218
3 228 202 218
3 228 233 241
3 233 253 241
3 253 245 241
3 245 228 241
3 245 253 259
3 253 271 259
3 271 264 259
3 264 245 259
3 264 271 275
3 271 288 275
3 288 284 275
3 284 264 275
3 284 288 293
3 288 305 293
3 305 301 293
3 301 284 293
3 301 305 312
3 305 322 312
3 322 318 312
3 318 301 312
3 318 322 329
3 322 340 329
3 340 337 329
3 337 318 329
3 127 149 125
3 149 129 125
3 129 101 125
3 101 127 125
3 101 129 106
3 129 112 106
3 112 83 106
3 83 101 106
3 83 112 92
3 112 96 92
3 96 67 92
3 67 83 92
3 67 96 75
3 96 88 75
3 88 57 75
3 57 67 75
3 57 88 71
3 88 85 71
3 85 54 71
3 54 57 71
3 54 85 72
3 85 89 72
3 89 58 72
3 58 54 72
3 58 89 76
3 89 97 76
3 97 68 76
3 68 58 76
3 68 97 93
3 97 113 93
3 113 84 93
3 84 68 93
3 84 113 107
3 113 130 107
3 130 102 107
3 102 84 107
3 102 130 126
3 130 150 126
3 150 128 126
3 128 102 126
3 128 150 153
3 150 175 153
3 175 156 153
3 156 128 153
3 156 175 179
3 175 205 179
3 205 187 179
3 187 156 179
3 187 205 209
3 205 225 209
3 225 213 209
3 213 187 209
3 213 225 231
3 225 244 231
3 244 233 231
3 233 213 231
3 233 244 247
3 244 261 247
3 261 253 247
3 253 233 247
3 253 261 266
3 261 278 266
3 278 271 266
3 271 253 266
3 271 278 282
3 278 295 282
3 295 288 282
3 288 271 282
3 288 295 300
3 295 311 300
3 311 305 300
3 305 288 300
3 305 311 317
3 311 328 317
3 328 322 317
3 322 305 317
3 322 328 334
3 328 342 334
3 342 340 334
3 340 322 334
3 149 176 154
3 176 157 154
3 157 129 154
3 129 149 154
3 129 157 133
3 157 141 133
3 141 112 133
3 112 129 133
3 112 141 117
3 141 123 117
3 123 96 117
3 96 112 117
3 96 123 108
3 123 120 108
3 120 88 108
3 88 96 108
3 88 120 99
3 120 115 99
3 115 85 99
3 85 88 99
3 85 115 100
3 115 121 100
3 121 89 100
3 89 85 100
3 89 121 109
3 121 124 109
3 124 97 109
3 97 89 109
3 97 124 118
3 124 142 118
3 142 113 118
3 113 97 118
3 113 142 134
3 142 158 134
3 158 130 134
3 130 113 134
3 130 158 155
3 158 177 155
3 177 150 155
3 150 130 155
3 150 177 174
3 177 198 174
3 198 175 174
3 175 150 174
3 175 198 200
3 198 221 200
3 221 205 200
3 205 175 200
3 205 221 223
3 221 238 223
3 238 225 223
3 225 205 223
3 225 238 242
3 238 255 242
3 255 244 242
3 244 225 242
3 244 255 256
3 255 270 256
3 270 261 256
3 261 244 256
3 261 270 273
3 270 286 273
3 286 278 273
3 278 261 273
3 278 286 290
3 286 302 290
3 302 295 290
3 295 278 290
3 295 302 307
3 302 319 307
3 319 311 307
3 311 295 307
3 311 319 324
3 319 335 324
3 335 328 324
3 328 311 324
3 328 335 339
3 335 345 339
3 345 342 339
3 342 328 339
3 176 206 180
3 206 188 180
3 188 157 180
3 157 176 180
3 157 188 163
3 188 169 163
3 169 141 163
3 141 157 163
3 141 169 145
3 169 160 145
3 160 123 145
3 123 141 145
3 123 160 138
3 160 151 138
3 151 120 138
3 120 123 138
3 120 151 135
3 151 147 135
3 147 115 135
3 115 120 135
3 115 147 136
3 147 152 136
3 152 121 136
3 121 115 136
3 121 152 139
3 152 161 139
3 161 124 139
3 124 121 139
3 124 161 143
3 161 170 143
3 170 142 143
3 142 124 143
3 142 170 164
3 170 189 164
3 189 158 164
3 158 142 164
3 158 189 181
3 189 207 181
3 207 177 181
3 177 158 181
3 177 207 201
3 207 222 201
3 222 198 201
3 198 177 201
3 198 222 219
3 222 234 219
3 234 221 219
3 221 198 219
3 221 234 235
3 234 250 235
3 250 238 235
3 238 221 235
3 238 250 252
3 250 265 252
3 265 255 252
3 255 238 252
3 255 265 268
3 265 281 268
3 281 270 268
3 270 255 268
3 270 281 283
3 281 297 283
3 297 286 283
3 286 270 283
3 286 297 299
3 297 310 299
3 310 302 299
3 302 286 299
3 302 310 315
3 310 327 315
3 327 319 315
3 319 302 315
3 319 327 330
3 327 341 330
3 341 335 330
3 335 319 330
3 335 341 343
3 341 347 343
3 347 345 343
3 345 335 343
3 206 226 210
3 226 214 210
3 214 188 210
3 188 206 210
3 188 214 196
3 214 203 196
3 203 169 196
3 169 188 196
3 169 203 182
3 203 193 182
3 193 160 182
3 160 169 182
3 160 193 172
3 193 190 172
3 190 151 172
3 151 160 172
3 151 190 166
3 190 185 166
3 185 147 166
3 147 151 166
3 147 185 167
3 185 191 167
3 191 152 167
3 152 147 167
3 152 191 173
3 191 194 173
3 194 161 173
3 161 152 173
3 161 194 183
3 194 204 183
3 204 170 183
3 170 161 183
3 170 204 197
3 204 215 197
3 215 189 197
3 189 170 197
3 189 215 211
3 215 227 211
3 227 207 211
3 207 189 211
3 207 227 224
3 227 239 224
3 239 222 224
3 222 207 224
3 222 239 236
3 239 251 236
3 251 234 236
3 234 222 236
3 234 251 249
3 251 262 249
3 262 250 249
3 250 234 249
3 250 262 263
3 262 277 263
3 277 265 263
3 265 250 263
3 265 277 279
3 277 291 279
3 291 281 279
3 281 265 279
3 281 291 292
3 291 306 292
3 306 297 292
3 297 281 292
3 297 306 309
3 306 320 309
3 320 310 309
3 310 297 309
3 310 320 325
3 320 336 325
3 336 327 325
3 327 310 325
3 327 336 338
3 336 344 338
3 344 341 338
3 341 327 338
3 341 344 346
3 344 348 346
3 348 347 346
3 347 341 346
POINT_DATA 349
FIELD attributes 1
U 3 349 float
20 0 0
20 -4.85871e-16 1.03342e-15
20 -4.66126e-16 9.62283e-16
20 0 0
20 -3.39104e-16 9.64104e-16
20 0 0
20 -3.01e-16 8.71647e-16
20 8.92024e-17 6.26425e-16
20 -1.80175e-16 6.06127e-16
20 -2.16226e-16 1.20276e-15
20 9.2712e-16 3.59709e-16
20 -2.24242e-16 1.25459e-15
20 0 0
20 0 0
20 -5.31408e-17 7.9451e-16
20 1.20058e-16 -7.0881e-17
20 -3.21728e-16 6.44281e-16
20 2.34893e-16 -3.11636e-17
20 -7.86929e-17 1.11672e-15
20 -1.30631e-16 4.08531e-16
20 1.75186e-16 5.91408e-16
20 4.69575e-17 5.70532e-16
20 2.45654e-16 1.34809e-15
20 3.22773e-16 3.81278e-16
20 1.44896e-16 7.46793e-16
20 1.56225e-16 -3.40222e-16
20 -1.63133e-16 4.88416e-16
20 -4.3038e-16 -7.9476e-16
20 6.6003e-16 4.35132e-16
20 -2.24716e-17 1.27176e-15
20 -6.758e-17 -1.86818e-16
20 0 0
20 0 0
20 3.94235e-16 4.72437e-16
20 1.02919e-16 9.81685e-16
20 -1.90839e-16 -1.3644e-16
20 2.84312e-16 1.07457e-16
20 5.50013e-16 4.30305e-16
20 1.62024e-16 9.38117e-16
20 -2.48484e-16 9.55574e-17
20 -2.40754e-16 2.24439e-16
20 2.75192e-16 -9.30381e-16
20 7.91769e-16 2.02632e-16
20 5.93317e-16 3.6979e-16
20 7.24799e-18 4.29192e-16
20 -9.24756e-17 -6.85983e-16
20 8.48941e-17 2.29476e-18
20 6.96062e-16 -4.66013e-17
20 -4.07263e-16 -2.27835e-16
20 2.64717e-17 3.6877e-16
20 3.66103e-16 -1.56518e-16
20 8.01809e-16 1.69506e-16
20 0 0
20 0 0
20 5.99055e-16 -4.2251e-18
20 2.65342e-16 4.3258e-16
20 -2.99726e-16 -1.85503e-16
20 5.68672e-16 -3.01152e-16
20 3.76306e-16 2.15878e-16
20 1.49803e-16 3.37199e-17
20 5.53581e-16 -6.62742e-16
20 2.65746e-16 -1.48203e-16
20 1.92548e-16 -7.90956e-16
20 2.81808e-16 1.28076e-16
20 1.04722e-15 1.39337e-16
20 2.0745e-16 2.32697e-17
20 3.19606e-17 -1.9444e-16
20 3.27602e-16 -7.48253e-17
20 3.61365e-16 1.42812e-16
20 4.27913e-16 2.71224e-16
20 -3.11193e-16 -3.18564e-16
20 7.72526e-16 -7.39511e-16
20 2.38608e-16 1.50189e-16
20 4.44958e-16 1.52208e-16
20 -2.31963e-16 -2.91172e-16
20 3.44288e-16 -5.1121e-16
20 -1.28511e-16 1.74027e-16
20 2.92414e-16 -6.94321e-17
20 6.99367e-16 -1.06897e-15
20 0 0
20 0 0
20 1.54182e-16 -1.50284e-16
20 5.38575e-16 -4.87843e-16
20 3.91609e-16 2.53008e-16
20 2.41621e-16 -3.94694e-16
20 7.78181e-16 -5.09218e-16
20 0 0
20 -4.27116e-16 -2.7954e-16
20 8.78773e-16 -5.66032e-16
20 5.65417e-16 -1.58626e-16
20 9.26237e-17 -2.79696e-16
20 5.7452e-16 5.32202e-16
20 3.18209e-16 2.40352e-16
20 -2.75057e-16 8.83784e-17
20 0 0
20 -4.46724e-18 2.09265e-16
20 3.89248e-16 -3.10962e-16
20 5.72062e-16 1.3154e-17
20 -9.14342e-16 -2.70515e-16
20 1.49502e-15 -8.03521e-16
20 6.06568e-16 -6.4403e-16
20 2.27662e-16 1.44893e-16
20 2.84119e-16 -9.11606e-16
20 -2.50964e-16 -2.37911e-16
20 -3.40552e-17 -1.03804e-16
20 6.87864e-16 -6.2365e-16
20 6.74007e-16 7.13035e-16
20 -5.05045e-16 -7.37527e-16
20 9.03254e-16 -2.09885e-16
20 1.545e-15 -3.14689e-16
20 0 0
20 3.94636e-16 1.91818e-16
20 2.04553e-16 -9.15741e-17
20 2.99428e-16 -1.61593e-16
20 0 0
20 7.38617e-16 -1.13589e-15
20 -1.09462e-16 8.33942e-16
20 -8.75939e-18 -7.63105e-16
20 1.14681e-15 1.049e-16
20 -6.7657e-16 -2.10348e-16
20 7.15057e-16 -5.96739e-16
20 8.82037e-16 -1.03838e-15
20 -6.23316e-16 2.81894e-16
20 3.59208e-16 -6.60632e-16
20 1.24477e-15 -4.00439e-16
20 -2.17158e-17 3.9774e-17
20 2.5429e-16 -1.21628e-15
20 0 0
20 2.53915e-16 -7.62856e-16
20 1.93884e-16 -1.6431e-16
20 3.73306e-16 -6.52124e-16
20 -2.80892e-16 -2.26822e-16
20 4.25621e-16 2.4777e-17
20 -1.65243e-16 -5.56578e-16
20 8.31004e-16 -1.02125e-16
20 2.88195e-16 -1.0987e-15
20 5.64682e-16 -1.9973e-15
20 -1.26008e-15 -1.06146e-16
20 1.73756e-16 -2.74852e-16
20 8.11896e-16 -1.1975e-15
20 -2.24612e-16 2.44238e-16
20 1.94046e-16 -1.22233e-15
20 9.11803e-16 1.14659e-16
20 1.47535e-15 -1.94467e-16
20 -8.72754e-16 6.37691e-16
20 3.68581e-16 -1.39469e-15
20 0 0
20 5.82214e-16 -1.10263e-15
20 -7.36696e-16 2.32602e-17
20 0 0
20 3.78236e-16 -8.41216e-16
20 5.34866e-16 -5.2628e-16
20 6.83957e-16 -1.06879e-15
20 -3.52115e-16 -1.23627e-15
20 2.8849e-16 -8.5347e-16
20 9.12975e-16 -5.52563e-16
20 -3.1827e-16 -8.31348e-16
20 3.13416e-16 -1.08715e-15
20 4.34274e-16 -1.36342e-16
20 -9.4661e-16 2.93176e-16
20 3.84545e-16 -5.38914e-16
20 1.05053e-15 -4.3054e-16
20 -3.41855e-16 -5.19459e-16
20 5.81605e-16 -2.17494e-15
20 1.94042e-16 6.50328e-16
20 -5.89546e-16 4.09482e-16
20 8.28095e-16 -3.93808e-16
20 6.47885e-16 -9.20719e-16
20 -6.41432e-16 1.37394e-16
20 4.32282e-16 -1.00291e-15
20 7.96677e-16 1.9665e-16
20 -8.16262e-16 1.65271e-17
20 8.49416e-16 -3.37763e-16
20 7.11365e-16 -1.59638e-16
20 6.97795e-16 -3.59751e-16
20 -1.68761e-16 -8.51406e-16
20 0 0
20 3.20801e-16 -4.82895e-16
20 -8.37343e-16 6.24632e-16
20 -1.00473e-15 -1.59444e-15
20 5.4881e-16 -7.63606e-16
20 -2.00926e-16 -5.41007e-16
20 1.46426e-16 -1.48356e-16
20 1.2035e-15 -1.70553e-16
20 0 0
20 7.3799e-16 0
20 -1.11787e-15 7.98284e-16
20 -6.47092e-16 -8.29458e-16
20 5.27675e-16 -7.77324e-16
20 2.51957e-16 1.15421e-16
20 8.38756e-16 0
20 6.79625e-16 0
20 -9.98605e-16 6.14068e-16
20 4.97921e-16 0
20 9.57435e-16 0
20 -5.13776e-16 -1.93287e-16
20 6.32515e-16 -2.93669e-16
20 3.13808e-16 5.01292e-16
20 -3.71087e-17 -1.74044e-16
20 -1.68802e-15 1.43275e-15
20 -1.59931e-17 -2.15161e-16
20 -1.2664e-16 -4.78261e-16
20 -5.26999e-16 1.33343e-16
20 3.89471e-16 0
20 7.58656e-16 0
20 -5.17194e-16 -8.54371e-16
20 0 0
20 2.43374e-16 -3.49581e-16
20 -1.37765e-15 1.33438e-15
20 -7.28007e-16 -1.01064e-15
20 3.47769e-16 1.22919e-16
20 7.00905e-16 -1.48928e-16
20 -9.63166e-16 4.80733e-16
20 -5.25103e-16 -7.09034e-16
20 4.90142e-16 0
20 5.07356e-16 0
20 0 0
20 -1.25233e-15 9.47393e-16
20 2.06289e-16 -3.78707e-16
20 -7.03597e-16 3.56998e-16
20 -9.15157e-16 5.97361e-16
20 -5.55186e-16 -2.90186e-16
20 3.35643e-17 -8.08517e-17
20 -3.20046e-16 -5.97239e-16
20 6.00156e-16 -2.3013e-16
20 -6.93405e-16 -1.05121e-15
20 1.73885e-16 0
20 6.50531e-16 0
20 -4.13915e-16 -1.23303e-16
20 -9.67526e-16 7.46723e-16
20 -9.76116e-16 2.75725e-16
20 -1.06492e-15 -1.2535e-15
20 -3.43697e-16 2.98607e-16
20 -6.19273e-16 -1.01365e-15
20 -4.08951e-16 -1.39831e-16
20 -1.18111e-15 -7.05345e-16
20 3.64338e-16 2.79862e-17
20 0 0
20 -9.16525e-16 -1.02093e-15
20 4.82247e-16 0
20 -5.33285e-16 2.04299e-16
20 -5.55087e-16 -8.93845e-16
20 -6.60646e-16 -1.34348e-15
20 -4.54369e-16 2.09278e-16
20 -9.4557e-16 -1.28033e-15
20 -5.43017e-16 -1.66817e-16
20 -1.96984e-16 -5.88787e-17
20 -1.06338e-15 -1.52854e-15
20 7.48736e-18 -1.46372e-16
20 -1.15437e-16 -2.38965e-16
20 -7.60032e-16 -6.67634e-16
20 1.2445e-16 0
20 -1.5043e-15 -1.43767e-15
20 -9.30394e-16 -9.79807e-16
20 -5.05151e-16 4.09153e-16
20 -1.06161e-15 -1.32871e-15
20 -9.93339e-16 -9.95824e-16
20 0 0
20 -1.91243e-16 -1.76587e-16
20 -7.68131e-16 -4.81181e-16
20 -4.53304e-17 -9.37583e-17
20 -1.16005e-15 -1.06576e-15
20 -1.7736e-16 0
20 -2.39284e-16 -2.88559e-16
20 -2.27054e-16 -9.86267e-17
20 -5.70678e-16 -9.50058e-16
20 -1.33498e-15 -1.01567e-15
20 -5.4971e-16 8.11686e-17
20 -1.08817e-15 -1.53788e-15
20 -2.57659e-17 -5.82266e-16
20 -1.26591e-15 -1.2444e-15
20 -7.07447e-16 -4.36497e-16
20 3.42108e-16 -5.55488e-17
20 -1.2485e-15 -7.23031e-16
20 0 0
20 2.29592e-17 -2.6693e-16
20 -2.65605e-16 -8.89337e-17
20 1.54878e-16 0
20 -1.01108e-15 -5.41751e-16
20 5.49041e-16 -5.36125e-16
20 2.98239e-16 -1.24309e-16
20 -6.36409e-16 -1.16019e-15
20 -7.49634e-16 1.77894e-17
20 -1.73363e-15 -1.72085e-15
20 3.1052e-16 5.35492e-17
20 -7.62726e-16 3.11621e-16
20 -1.33499e-15 -1.14763e-15
20 2.75782e-16 -1.66258e-16
20 -2.17507e-16 -1.46628e-16
20 6.00833e-16 3.06838e-16
20 -7.11203e-16 -4.46097e-16
20 1.38084e-16 0
20 -2.72873e-16 -8.45895e-16
20 2.7618e-16 2.29838e-16
20 0 0
20 -5.1992e-16 -5.54446e-16
20 -4.17939e-16 1.94061e-16
20 -1.06311e-15 -1.13911e-15
20 2.54264e-16 5.77292e-17
20 -1.6466e-15 -1.70055e-15
20 -4.19533e-16 -5.6721e-16
20 2.03957e-16 1.88167e-16
20 -9.1884e-16 -9.58564e-16
20 -1.42733e-15 6.68369e-16
20 2.42513e-16 -3.74888e-17
20 -1.65481e-16 -1.70317e-16
20 -4.36098e-16 0
20 -1.99309e-16 -1.22227e-15
20 -1.02071e-16 1.27826e-16
20 -5.99323e-16 -2.89154e-16
20 -1.02102e-15 -4.46935e-16
20 -3.07177e-16 -7.39086e-16
20 4.08836e-17 8.81674e-17
20 0 0
20 -1.00399e-15 2.7491e-16
20 -1.11825e-15 -4.65342e-16
20 -2.72955e-16 3.35237e-17
20 -5.59457e-16 -4.32064e-16
20 4.83957e-17 9.30063e-17
20 -6.99518e-16 -7.87854e-16
20 -6.59617e-16 0
20 -2.13439e-15 6.70969e-16
20 4.08451e-18 -3.3561e-16
20 -6.96757e-16 -2.0221e-16
20 -5.04092e-17 -7.34804e-16
20 -7.19911e-16 6.67308e-16
20 -5.35506e-16 2.45968e-16
20 -1.06028e-15 -1.11544e-16
20 -2.13757e-16 -7.26276e-16
20 7.90276e-16 -8.99363e-17
20 -1.43011e-15 -7.29006e-16
20 -1.0672e-15 3.35485e-16
20 -1.41558e-15 2.3438e-16
20 -6.16131e-16 2.18788e-17
20 -2.55364e-16 -9.08607e-16
20 -6.66813e-16 -8.3204e-16
20 -8.46386e-16 0
20 1.27385e-16 7.80159e-17
20 -9.7286e-16 8.08621e-17
20 1.02005e-17 -8.2963e-16
20 2.67456e-16 -4.99272e-16
20 -1.10072e-15 -4.55798e-16
20 -1.22582e-16 -8.69119e-16
20 -1.19694e-15 -1.03472e-15
20 -8.87921e-16 0
20 -5.93368e-16 -9.32175e-16
20 -8.02982e-16 -1.40327e-16
20 -9.9996e-16 -5.87524e-16
20 -8.02982e-16 -7.01635e-17
